# vtk DataFile Version 3.0
#This file was generated by the deal.II library on 2016/5/13 at 16:44:18
ASCII
DATASET UNSTRUCTURED_GRID

POINTS 26120 double
162500 -25000 0
175000 -25000 0
162500 -12500 0
175000 -12500 0
150000 -62500 0
162500 -62500 0
150000 -50000 0
162500 -50000 0
162500 -62500 0
175000 -62500 0
162500 -50000 0
175000 -50000 0
187500 -75000 0
200000 -75000 0
187500 -62500 0
200000 -62500 0
175000 -62500 0
187500 -62500 0
175000 -50000 0
187500 -50000 0
187500 -62500 0
200000 -62500 0
187500 -50000 0
200000 -50000 0
150000 -50000 0
162500 -50000 0
150000 -37500 0
162500 -37500 0
162500 -50000 0
175000 -50000 0
162500 -37500 0
175000 -37500 0
175000 -50000 0
187500 -50000 0
175000 -37500 0
187500 -37500 0
187500 -50000 0
200000 -50000 0
187500 -37500 0
200000 -37500 0
187500 -37500 0
200000 -37500 0
187500 -25000 0
200000 -25000 0
93750 -56250 0
100000 -56250 0
93750 -50000 0
100000 -50000 0
68750 -50000 0
75000 -50000 0
68750 -43750 0
75000 -43750 0
75000 -50000 0
81250 -50000 0
75000 -43750 0
81250 -43750 0
81250 -50000 0
87500 -50000 0
81250 -43750 0
87500 -43750 0
81250 -43750 0
87500 -43750 0
81250 -37500 0
87500 -37500 0
112500 -100000 0
118750 -100000 0
112500 -93750 0
118750 -93750 0
112500 -93750 0
118750 -93750 0
112500 -87500 0
118750 -87500 0
118750 -93750 0
125000 -93750 0
118750 -87500 0
125000 -87500 0
112500 -87500 0
118750 -87500 0
112500 -81250 0
118750 -81250 0
112500 -81250 0
118750 -81250 0
112500 -75000 0
118750 -75000 0
118750 -81250 0
125000 -81250 0
118750 -75000 0
125000 -75000 0
100000 -75000 0
106250 -75000 0
100000 -68750 0
106250 -68750 0
106250 -75000 0
112500 -75000 0
106250 -68750 0
112500 -68750 0
112500 -25000 0
118750 -25000 0
112500 -18750 0
118750 -18750 0
100000 -37500 0
106250 -37500 0
100000 -31250 0
106250 -31250 0
106250 -31250 0
112500 -31250 0
106250 -25000 0
112500 -25000 0
87500 -50000 0
93750 -50000 0
87500 -43750 0
93750 -43750 0
93750 -50000 0
100000 -50000 0
93750 -43750 0
100000 -43750 0
100000 -56250 0
106250 -56250 0
100000 -50000 0
106250 -50000 0
106250 -56250 0
112500 -56250 0
106250 -50000 0
112500 -50000 0
112500 -56250 0
118750 -56250 0
112500 -50000 0
118750 -50000 0
118750 -56250 0
125000 -56250 0
118750 -50000 0
125000 -50000 0
150000 -100000 0
156250 -100000 0
150000 -93750 0
156250 -93750 0
156250 -100000 0
162500 -100000 0
156250 -93750 0
162500 -93750 0
150000 -93750 0
156250 -93750 0
150000 -87500 0
156250 -87500 0
156250 -93750 0
162500 -93750 0
156250 -87500 0
162500 -87500 0
150000 -87500 0
156250 -87500 0
150000 -81250 0
156250 -81250 0
156250 -87500 0
162500 -87500 0
156250 -81250 0
162500 -81250 0
150000 -81250 0
156250 -81250 0
150000 -75000 0
156250 -75000 0
156250 -81250 0
162500 -81250 0
156250 -75000 0
162500 -75000 0
100000 -50000 0
106250 -50000 0
100000 -43750 0
106250 -43750 0
106250 -50000 0
112500 -50000 0
106250 -43750 0
112500 -43750 0
143750 -25000 0
150000 -25000 0
143750 -18750 0
150000 -18750 0
131250 -37500 0
137500 -37500 0
131250 -31250 0
137500 -31250 0
137500 -37500 0
143750 -37500 0
137500 -31250 0
143750 -31250 0
143750 -37500 0
150000 -37500 0
143750 -31250 0
150000 -31250 0
143750 -31250 0
150000 -31250 0
143750 -25000 0
150000 -25000 0
150000 -25000 0
156250 -25000 0
150000 -18750 0
156250 -18750 0
156250 -25000 0
162500 -25000 0
156250 -18750 0
162500 -18750 0
150000 -18750 0
156250 -18750 0
150000 -12500 0
156250 -12500 0
156250 -18750 0
162500 -18750 0
156250 -12500 0
162500 -12500 0
162500 -100000 0
168750 -100000 0
162500 -93750 0
168750 -93750 0
168750 -100000 0
175000 -100000 0
168750 -93750 0
175000 -93750 0
162500 -93750 0
168750 -93750 0
162500 -87500 0
168750 -87500 0
168750 -93750 0
175000 -93750 0
168750 -87500 0
175000 -87500 0
150000 -12500 0
156250 -12500 0
150000 -6250 0
156250 -6250 0
156250 -12500 0
162500 -12500 0
156250 -6250 0
162500 -6250 0
150000 -6250 0
156250 -6250 0
150000 0 0
156250 0 0
156250 -6250 0
162500 -6250 0
156250 0 0
162500 0 0
162500 -87500 0
168750 -87500 0
162500 -81250 0
168750 -81250 0
168750 -87500 0
175000 -87500 0
168750 -81250 0
175000 -81250 0
162500 -81250 0
168750 -81250 0
162500 -75000 0
168750 -75000 0
168750 -81250 0
175000 -81250 0
168750 -75000 0
175000 -75000 0
112500 -50000 0
118750 -50000 0
112500 -43750 0
118750 -43750 0
118750 -50000 0
125000 -50000 0
118750 -43750 0
125000 -43750 0
112500 -43750 0
118750 -43750 0
112500 -37500 0
118750 -37500 0
118750 -43750 0
125000 -43750 0
118750 -37500 0
125000 -37500 0
125000 -25000 0
131250 -25000 0
125000 -18750 0
131250 -18750 0
131250 -25000 0
137500 -25000 0
131250 -18750 0
137500 -18750 0
125000 -18750 0
131250 -18750 0
125000 -12500 0
131250 -12500 0
131250 -18750 0
137500 -18750 0
131250 -12500 0
137500 -12500 0
125000 -50000 0
131250 -50000 0
125000 -43750 0
131250 -43750 0
131250 -50000 0
137500 -50000 0
131250 -43750 0
137500 -43750 0
125000 -43750 0
131250 -43750 0
125000 -37500 0
131250 -37500 0
131250 -43750 0
137500 -43750 0
131250 -37500 0
137500 -37500 0
137500 -50000 0
143750 -50000 0
137500 -43750 0
143750 -43750 0
143750 -50000 0
150000 -50000 0
143750 -43750 0
150000 -43750 0
137500 -43750 0
143750 -43750 0
137500 -37500 0
143750 -37500 0
143750 -43750 0
150000 -43750 0
143750 -37500 0
150000 -37500 0
162500 -12500 0
168750 -12500 0
162500 -6250 0
168750 -6250 0
168750 -12500 0
175000 -12500 0
168750 -6250 0
175000 -6250 0
162500 -6250 0
168750 -6250 0
162500 0 0
168750 0 0
168750 -6250 0
175000 -6250 0
168750 0 0
175000 0 0
125000 -75000 0
131250 -75000 0
125000 -68750 0
131250 -68750 0
131250 -75000 0
137500 -75000 0
131250 -68750 0
137500 -68750 0
125000 -68750 0
131250 -68750 0
125000 -62500 0
131250 -62500 0
131250 -68750 0
137500 -68750 0
131250 -62500 0
137500 -62500 0
137500 -75000 0
143750 -75000 0
137500 -68750 0
143750 -68750 0
143750 -75000 0
150000 -75000 0
143750 -68750 0
150000 -68750 0
137500 -68750 0
143750 -68750 0
137500 -62500 0
143750 -62500 0
143750 -68750 0
150000 -68750 0
143750 -62500 0
150000 -62500 0
125000 -62500 0
131250 -62500 0
125000 -56250 0
131250 -56250 0
131250 -62500 0
137500 -62500 0
131250 -56250 0
137500 -56250 0
125000 -56250 0
131250 -56250 0
125000 -50000 0
131250 -50000 0
131250 -56250 0
137500 -56250 0
131250 -50000 0
137500 -50000 0
137500 -62500 0
143750 -62500 0
137500 -56250 0
143750 -56250 0
143750 -62500 0
150000 -62500 0
143750 -56250 0
150000 -56250 0
137500 -56250 0
143750 -56250 0
137500 -50000 0
143750 -50000 0
143750 -56250 0
150000 -56250 0
143750 -50000 0
150000 -50000 0
175000 -100000 0
181250 -100000 0
175000 -93750 0
181250 -93750 0
181250 -100000 0
187500 -100000 0
181250 -93750 0
187500 -93750 0
175000 -93750 0
181250 -93750 0
175000 -87500 0
181250 -87500 0
181250 -93750 0
187500 -93750 0
181250 -87500 0
187500 -87500 0
187500 -100000 0
193750 -100000 0
187500 -93750 0
193750 -93750 0
193750 -100000 0
200000 -100000 0
193750 -93750 0
200000 -93750 0
187500 -93750 0
193750 -93750 0
187500 -87500 0
193750 -87500 0
193750 -93750 0
200000 -93750 0
193750 -87500 0
200000 -87500 0
175000 -87500 0
181250 -87500 0
175000 -81250 0
181250 -81250 0
181250 -87500 0
187500 -87500 0
181250 -81250 0
187500 -81250 0
175000 -81250 0
181250 -81250 0
175000 -75000 0
181250 -75000 0
181250 -81250 0
187500 -81250 0
181250 -75000 0
187500 -75000 0
187500 -87500 0
193750 -87500 0
187500 -81250 0
193750 -81250 0
193750 -87500 0
200000 -87500 0
193750 -81250 0
200000 -81250 0
187500 -81250 0
193750 -81250 0
187500 -75000 0
193750 -75000 0
193750 -81250 0
200000 -81250 0
193750 -75000 0
200000 -75000 0
150000 -75000 0
156250 -75000 0
150000 -68750 0
156250 -68750 0
156250 -75000 0
162500 -75000 0
156250 -68750 0
162500 -68750 0
150000 -68750 0
156250 -68750 0
150000 -62500 0
156250 -62500 0
156250 -68750 0
162500 -68750 0
156250 -62500 0
162500 -62500 0
162500 -75000 0
168750 -75000 0
162500 -68750 0
168750 -68750 0
168750 -75000 0
175000 -75000 0
168750 -68750 0
175000 -68750 0
162500 -68750 0
168750 -68750 0
162500 -62500 0
168750 -62500 0
168750 -68750 0
175000 -68750 0
168750 -62500 0
175000 -62500 0
175000 -75000 0
181250 -75000 0
175000 -68750 0
181250 -68750 0
181250 -75000 0
187500 -75000 0
181250 -68750 0
187500 -68750 0
175000 -68750 0
181250 -68750 0
175000 -62500 0
181250 -62500 0
181250 -68750 0
187500 -68750 0
181250 -62500 0
187500 -62500 0
150000 -37500 0
156250 -37500 0
150000 -31250 0
156250 -31250 0
156250 -37500 0
162500 -37500 0
156250 -31250 0
162500 -31250 0
150000 -31250 0
156250 -31250 0
150000 -25000 0
156250 -25000 0
156250 -31250 0
162500 -31250 0
156250 -25000 0
162500 -25000 0
162500 -37500 0
168750 -37500 0
162500 -31250 0
168750 -31250 0
168750 -37500 0
175000 -37500 0
168750 -31250 0
175000 -31250 0
162500 -31250 0
168750 -31250 0
162500 -25000 0
168750 -25000 0
168750 -31250 0
175000 -31250 0
168750 -25000 0
175000 -25000 0
175000 -37500 0
181250 -37500 0
175000 -31250 0
181250 -31250 0
181250 -37500 0
187500 -37500 0
181250 -31250 0
187500 -31250 0
175000 -31250 0
181250 -31250 0
175000 -25000 0
181250 -25000 0
181250 -31250 0
187500 -31250 0
181250 -25000 0
187500 -25000 0
175000 -25000 0
181250 -25000 0
175000 -18750 0
181250 -18750 0
181250 -25000 0
187500 -25000 0
181250 -18750 0
187500 -18750 0
175000 -18750 0
181250 -18750 0
175000 -12500 0
181250 -12500 0
181250 -18750 0
187500 -18750 0
181250 -12500 0
187500 -12500 0
187500 -25000 0
193750 -25000 0
187500 -18750 0
193750 -18750 0
193750 -25000 0
200000 -25000 0
193750 -18750 0
200000 -18750 0
187500 -18750 0
193750 -18750 0
187500 -12500 0
193750 -12500 0
193750 -18750 0
200000 -18750 0
193750 -12500 0
200000 -12500 0
175000 -12500 0
181250 -12500 0
175000 -6250 0
181250 -6250 0
181250 -12500 0
187500 -12500 0
181250 -6250 0
187500 -6250 0
175000 -6250 0
181250 -6250 0
175000 0 0
181250 0 0
181250 -6250 0
187500 -6250 0
181250 0 0
187500 0 0
187500 -12500 0
193750 -12500 0
187500 -6250 0
193750 -6250 0
193750 -12500 0
200000 -12500 0
193750 -6250 0
200000 -6250 0
187500 -6250 0
193750 -6250 0
187500 0 0
193750 0 0
193750 -6250 0
200000 -6250 0
[...]
POINT_DATA 26120
SCALARS velocity double 1
LOOKUP_TABLE default
-2.02771 -2.02946 -2.0527 -2.0376 -1.98217 -1.98839 -1.99519 -1.99782 -1.98839 -1.98493 -1.99782 -2.00019 -1.96948 -1.96545 -1.98225 -1.97844 -1.98493 -1.98225 -2.00019 -1.99791 -1.98225 -1.97844 -1.99791 -1.99574 -1.99519 -1.99782 -2.00182 -2.01025 -1.99782 -2.00019 -2.01025 -2.01347 -2.00019 -1.99791 -2.01347 -2.01305 -1.99791 -1.99574 -2.01305 -2.01396 -2.01305 -2.01396 -2.0288 -2.03054 -1.9542 -1.94962 -1.94153 -1.94391 -1.82808 -1.88781 -1.80028 -1.84714 -1.88781 -1.92129 -1.84714 -1.86382 -1.92129 -1.9469 -1.86382 -1.89319 -1.86382 -1.89319 -1.84429 -1.88784 -1.77813 -1.83719 -1.81364 -1.85045 -1.81364 -1.85045 -1.87401 -1.87787 -1.85045 -1.83863 -1.87787 -1.8645 -1.87401 -1.87787 -1.90347 -1.90753 -1.90347 -1.90753 -1.91806 -1.91431 -1.90753 -1.88792 -1.91431 -1.92068 -1.9166 -1.91174 -1.94051 -1.92628 -1.91174 -1.91806 -1.92628 -1.9319 -2.07283 -2.08441 -2.1527 -2.08064 -1.98205 -1.99687 -2.01503 -1.99385 -1.99385 -2.02534 -2.05242 -2.07283 -1.9469 -1.94153 -1.89319 -1.91919 -1.94153 -1.94391 -1.91919 -1.9465 -1.94962 -1.95297 -1.94391 -1.95122 -1.95297 -1.96039 -1.95122 -1.96079 -1.96039 -1.96779 -1.96079 -1.9675 -1.96779 -1.97105 -1.9675 -1.97478 -1.92958 -1.93501 -1.93805 -1.93383 -1.93501 -1.93531 -1.93383 -1.93684 -1.93805 -1.93383 -1.94776 -1.96317 -1.93383 -1.93684 -1.96317 -1.96346 -1.94776 -1.96317 -1.9634 -1.97016 -1.96317 -1.96346 -1.97016 -1.97091 -1.9634 -1.97016 -1.9717 -1.97816 -1.97016 -1.97091 -1.97816 -1.98036 -1.94391 -1.95122 -1.9465 -1.95945 -1.95122 -1.96079 -1.95945 -1.97149 -2.01826 -2.02474 -2.05788 -2.05227 -2.00383 -1.9922 -2.04963 -2.02338 -1.9922 -1.99305 -2.02338 -2.00924 -1.99305 -2.00182 -2.00924 -2.01336 -2.00924 -2.01336 -2.01826 -2.02474 -2.02474 -2.02429 -2.05227 -2.05411 -2.02429 -2.02771 -2.05411 -2.04021 -2.05227 -2.05411 -2.08703 -2.06417 -2.05411 -2.04021 -2.06417 -2.0527 -1.93531 -1.94183 -1.93684 -1.95262 -1.94183 -1.94901 -1.95262 -1.95603 -1.93684 -1.95262 -1.96346 -1.95904 -1.95262 -1.95603 -1.95904 -1.96327 -2.08703 -2.06417 -2.10032 -2.07693 -2.06417 -2.0527 -2.07693 -2.05868 -2.10032 -2.07693 -2.11136 -2.0845 -2.07693 -2.05868 -2.0845 -2.06301 -1.96346 -1.95904 -1.97091 -1.96619 -1.95904 -1.96327 -1.96619 -1.96694 -1.97091 -1.96619 -1.98036 -1.97771 -1.96619 -1.96694 -1.97771 -1.97401 -1.96079 -1.9675 -1.97149 -1.98386 -1.9675 -1.97478 -1.98386 -1.98711 -1.97149 -1.98386 -2.00147 -1.99811 -1.98386 -1.98711 -1.99811 -2.00965 -2.10363 -2.07529 -2.11344 -2.08199 -2.07529 -2.03988 -2.08199 -2.07561 -2.11344 -2.08199 -2.05609 -2.08356 -2.08199 -2.07561 -2.08356 -2.08978 -1.97478 -1.98414 -1.98711 -1.99415 -1.98414 -1.98883 -1.99415 -1.99451 -1.98711 -1.99415 -2.00965 -2.00383 -1.99415 -1.99451 -2.00383 -1.9922 -1.98883 -1.99229 -1.99451 -1.99512 -1.99229 -1.99519 -1.99512 -1.99851 -1.99451 -1.99512 -1.9922 -1.99305 -1.99512 -1.99851 -1.99305 -2.00182 -2.0527 -2.04515 -2.05868 -2.04831 -2.04515 -2.0376 -2.04831 -2.03943 -2.05868 -2.04831 -2.06301 -2.05096 -2.04831 -2.03943 -2.05096 -2.04037 -1.92068 -1.93179 -1.94584 -1.94959 -1.93179 -1.94387 -1.94959 -1.95517 -1.94584 -1.94959 -1.96689 -1.96222 -1.94959 -1.95517 -1.96222 -1.96585 -1.94387 -1.95826 -1.95517 -1.96438 -1.95826 -1.9717 -1.96438 -1.97234 -1.95517 -1.96438 -1.96585 -1.97268 -1.96438 -1.97234 -1.97268 -1.98217 -1.96689 -1.96222 -1.97105 -1.97305 -1.96222 -1.96585 -1.97305 -1.97829 -1.97105 -1.97305 -1.97478 -1.98414 -1.97305 -1.97829 -1.98414 -1.98883 -1.96585 -1.97268 -1.97829 -1.98424 -1.97268 -1.98217 -1.98424 -1.98868 -1.97829 -1.98424 -1.98883 -1.99229 -1.98424 -1.98868 -1.99229 -1.99519 -1.94901 -1.95105 -1.95603 -1.95628 -1.95105 -1.95327 -1.95628 -1.95736 -1.95603 -1.95628 -1.96327 -1.9624 -1.95628 -1.95736 -1.9624 -1.95956 -1.95327 -1.94665 -1.95736 -1.95176 -1.94665 -1.9404 -1.95176 -1.9452 -1.95736 -1.95176 -1.95956 -1.95751 -1.95176 -1.9452 -1.95751 -1.95415 -1.96327 -1.9624 -1.96694 -1.96622 -1.9624 -1.95956 -1.96622 -1.9626 -1.96694 -1.96622 -1.97401 -1.9715 -1.96622 -1.9626 -1.9715 -1.96948 -1.95956 -1.95751 -1.9626 -1.96227 -1.95751 -1.95415 -1.96227 -1.96196 -1.9626 -1.96227 -1.96948 -1.96747 -1.96227 -1.96196 -1.96747 -1.96545 -1.9717 -1.97816 -1.97234 -1.97743 -1.97816 -1.98036 -1.97743 -1.98352 -1.97234 -1.97743 -1.98217 -1.98528 -1.97743 -1.98352 -1.98528 -1.98839 -1.98036 -1.97771 -1.98352 -1.98449 -1.97771 -1.97401 -1.98449 -1.98159 -1.98352 -1.98449 -1.98839 -1.98666 -1.98449 -1.98159 -1.98666 -1.98493 -1.97401 -1.9715 -1.98159 -1.9779 -1.9715 -1.96948 -1.9779 -1.97586 -1.98159 -1.9779 -1.98493 -1.98359 -1.9779 -1.97586 -1.98359 -1.98225 -2.00182 -2.00603 -2.01336 -2.01522 -2.00603 -2.01025 -2.01522 -2.01695 -2.01336 -2.01522 -2.02474 -2.02429 -2.01522 -2.01695 -2.02429 -2.02771 -2.01025 -2.01186 -2.01695 -2.01844 -2.01186 -2.01347 -2.01844 -2.02016 -2.01695 -2.01844 -2.02771 -2.02859 -2.01844 -2.02016 -2.02859 -2.02946 -2.01347 -2.01326 -2.02016 -2.02114 -2.01326 -2.01305 -2.02114 -2.02092 -2.02016 -2.02114 -2.02946 -2.02766 -2.02114 -2.02092 -2.02766 -2.0288 -2.02946 -2.02766 -2.03353 -2.03293 -2.02766 -2.0288 -2.03293 -2.03521 -2.03353 -2.03293 -2.0376 -2.03168 -2.03293 -2.03521 -2.03168 -2.03746 -2.0288 -2.02967 -2.03521 -2.03921 -2.02967 -2.03054 -2.03921 -2.04042 -2.03521 -2.03921 -2.03746 -2.05239 -2.03921 -2.04042 -2.05239 -2.05962 -2.0376 -2.03168 -2.03943 -2.02612 -2.03168 -2.03746 -2.02612 -2.01152 -2.03943 -2.02612 -2.04037 -2.02294 -2.02612 -2.01152 -2.02294 -1.98795 -2.03746 -2.05239 -2.01152 -2.06779 -2.05239 -2.05962 -2.06779 -2.12769 -2.01152 -2.06779 -1.98795 -2.07913 -2.06779 -2.12769 -2.07913 -2.18659 -1.59861 -1.65708 -1.60833 -1.65176 -1.5915 -1.60833 -1.59664 -1.6419 -1.2903 -1.32104 -1.30185 -1.34518 -1.32104 -1.30246 -1.34518 -1.36656 -1.30185 -1.34518 -1.36647 -1.39237 -1.34518 -1.36656 -1.39237 -1.42045 -1.36647 -1.39237 -1.42098 -1.44101 -1.39237 -1.42045 -1.44101 -1.47737 -1.39667 -1.42098 -1.40886 -1.44921 -1.40886 -1.44921 -1.46058 -1.48953 -1.42098 -1.44101 -1.44921 -1.47657 -1.44101 -1.47737 -1.47657 -1.51275 -1.44921 -1.47657 -1.48953 -1.48757 -1.47657 -1.51275 -1.48757 -1.5342 -1.47472 -1.46058 -1.48364 -1.48799 -1.46058 -1.48953 -1.48799 -1.51247 -1.48364 -1.48799 -1.50396 -1.49029 -1.48799 -1.51247 -1.49029 -1.48884 -1.48757 -1.5342 -1.50436 -1.54471 -1.51247 -1.50436 -1.48884 -1.51535 -1.50436 -1.54471 -1.51535 -1.55672 -1.53287 -1.53458 -1.56227 -1.56738 -1.57438 -1.56227 -1.59455 -1.62398 -1.56227 -1.56738 -1.62398 -1.57985 -1.59455 -1.62398 -1.65033 -1.64806 -1.62536 -1.65033 -1.64777 -1.66404 -1.63244 -1.64777 -1.65708 -1.67284 -1.56695 -1.59664 -1.58269 -1.64169 -1.68764 -1.72251 -1.68296 -1.71066 -1.72251 -1.74696 -1.71066 -1.74289 -1.74696 -1.78695 -1.74289 -1.78559 -1.78695 -1.82347 -1.78559 -1.85625 -1.85625 -1.91974 -1.94741 -1.98719 -2.21859 -2.27503 -2.20819 -2.2633 -2.27503 -2.28949 -2.2633 -2.30373 -2.28949 -2.25596 -2.30373 -2.31414 -2.2633 -2.30373 -2.28173 -2.34843 -2.30373 -2.31414 -2.34843 -2.39992 -2.34843 -2.39992 -2.41241 -2.51184 -2.41241 -2.51184 -2.46684 -2.61321 -2.62017 -2.66009 -2.63422 -2.68454 -2.61321 -2.77575 -2.61777 -2.70714 -2.77575 -2.81771 -2.70714 -2.7616 -2.61777 -2.70714 -2.64378 -2.70345 -2.81771 -2.78736 -2.7616 -2.77574 -2.64378 -2.70345 -2.66009 -2.72029 -2.70345 -2.75495 -2.72029 -2.77116 -1.88632 -1.9166 -1.90197 -1.92855 -1.90197 -1.92855 -1.92845 -1.94051 -1.88375 -1.91283 -1.93998 -1.91482 -1.91283 -1.92118 -1.91482 -1.91798 -1.89368 -1.92845 -1.92118 -1.92123 -1.92845 -1.94051 -1.92123 -1.9331 -1.92118 -1.92123 -1.91798 -1.91862 -1.92123 -1.9331 -1.91862 -1.92457 -1.75278 -1.81156 -1.76823 -1.78848 -1.81156 -1.84424 -1.78848 -1.82808 -1.83211 -1.88801 -1.84424 -1.87026 -1.88801 -1.91079 -1.87026 -1.89373 -1.84424 -1.87026 -1.82808 -1.85795 -1.87026 -1.89373 -1.85795 -1.88781 -1.54356 -1.59474 -1.51524 -1.52565 -1.59474 -1.60779 -1.52565 -1.58395 -1.69004 -1.72003 -1.7022 -1.70469 -1.59022 -1.6281 -1.60779 -1.63939 -1.6281 -1.68059 -1.63939 -1.68422 -1.60779 -1.63939 -1.58395 -1.64804 -1.63939 -1.68422 -1.64804 -1.69222 -1.88458 -1.92975 -1.91617 -1.92317 -1.89894 -1.91617 -1.91079 -1.91185 -1.91617 -1.92317 -1.91185 -1.92526 -1.92975 -1.95099 -1.92317 -1.94085 -1.95099 -1.93998 -1.94085 -1.96176 -1.92317 -1.94085 -1.92526 -1.93725 -1.94085 -1.96176 -1.93725 -1.95523 -1.65676 -1.71993 -1.70587 -1.73938 -1.72003 -1.70587 -1.70469 -1.7151 -1.70587 -1.73938 -1.7151 -1.73091 -1.73091 -1.75322 -1.75236 -1.76137 -1.75322 -1.7859 -1.76137 -1.7888 -1.76137 -1.7888 -1.80991 -1.80993 -1.7859 -1.78876 -1.7888 -1.79446 -1.78876 -1.80028 -1.79446 -1.80221 -1.7888 -1.79446 -1.80993 -1.77943 -1.79446 -1.80221 -1.77943 -1.79064 -1.80028 -1.82371 -1.80221 -1.81776 -1.82371 -1.84714 -1.81776 -1.85566 -1.80221 -1.81776 -1.79064 -1.80826 -1.81776 -1.85566 -1.80826 -1.83088 -1.76016 -1.81536 -1.79582 -1.83374 -1.81536 -1.84644 -1.83374 -1.86311 -1.79582 -1.83374 -1.83184 -1.8567 -1.83374 -1.86311 -1.8567 -1.89368 -1.82814 -1.84429 -1.88821 -1.84922 -1.84429 -1.86607 -1.84922 -1.84655 -1.86607 -1.88784 -1.84655 -1.89036 -1.62501 -1.6931 -1.66741 -1.68762 -1.6931 -1.74031 -1.68762 -1.74192 -1.74031 -1.77813 -1.74192 -1.79588 -1.68762 -1.74192 -1.72407 -1.76635 -1.74192 -1.79588 -1.76635 -1.81364 -1.72407 -1.76635 -1.7837 -1.80111 -1.76635 -1.81364 -1.80111 -1.84382 -1.80111 -1.84382 -1.85395 -1.87401 -1.68059 -1.7022 -1.68422 -1.71634 -1.7022 -1.70469 -1.71634 -1.75018 -1.68422 -1.71634 -1.69222 -1.72203 -1.71634 -1.75018 -1.72203 -1.74231 -1.91079 -1.91185 -1.89373 -1.90859 -1.91185 -1.92526 -1.90859 -1.92128 -1.89373 -1.90859 -1.88781 -1.90455 -1.90859 -1.92128 -1.90455 -1.92129 -1.92526 -1.93725 -1.92128 -1.93033 -1.93725 -1.95523 -1.93033 -1.94105 -1.92128 -1.93033 -1.92129 -1.93409 -1.93033 -1.94105 -1.93409 -1.9469 -1.93998 -1.91482 -1.96176 -1.94681 -1.91482 -1.91798 -1.94681 -1.94044 -1.96176 -1.94681 -1.95523 -1.95743 -1.94681 -1.94044 -1.95743 -1.9542 -1.91798 -1.91862 -1.94044 -1.93872 -1.91862 -1.92457 -1.93872 -1.93678 -1.94044 -1.93872 -1.9542 -1.95191 -1.93872 -1.93678 -1.95191 -1.94962 -1.95523 -1.95743 -1.94105 -1.94981 -1.95743 -1.9542 -1.94981 -1.94787 -1.94105 -1.94981 -1.9469 -1.94422 -1.94981 -1.94787 -1.94422 -1.94153 -1.71993 -1.74701 -1.73938 -1.74042 -1.74701 -1.76823 -1.74042 -1.75802 -1.73938 -1.74042 -1.73091 -1.75322 -1.74042 -1.75802 -1.75322 -1.7859 -1.70469 -1.7151 -1.75018 -1.77131 -1.7151 -1.73091 -1.77131 -1.75236 -1.75018 -1.77131 -1.74231 -1.76038 -1.77131 -1.75236 -1.76038 -1.79231 -1.76823 -1.78848 -1.75802 -1.79458 -1.78848 -1.82808 -1.79458 -1.81418 -1.75802 -1.79458 -1.7859 -1.78876 -1.79458 -1.81418 -1.78876 -1.80028 -2.1527 -2.11667 -2.19433 -2.15187 -2.11667 -2.08064 -2.15187 -2.10925 -2.19433 -2.15187 -2.2674 -2.14975 -2.15187 -2.10925 -2.14975 -2.14833 -2.14975 -2.14833 -2.10902 -2.17369 -2.10902 -2.17369 -2.19469 -2.18876 -2.14833 -2.16366 -2.17369 -2.23256 -2.17369 -2.23256 -2.18876 -2.20222 -2.23256 -2.10389 -2.20222 -2.19468 -2.19469 -2.18876 -2.28851 -2.22209 -2.45465 -2.28851 -2.42958 -2.34392 -2.28851 -2.22209 -2.34392 -2.24908 -1.84714 -1.85548 -1.85566 -1.84729 -1.85548 -1.86382 -1.84729 -1.85406 -1.85566 -1.84729 -1.83088 -1.82814 -1.84729 -1.85406 -1.82814 -1.84429 -2.01503 -2.00444 -2.0543 -1.97407 -2.00444 -1.99385 -1.97407 -2.02314 -1.97407 -2.02314 -2.06383 -2.05242 -1.83719 -1.81898 -1.84382 -1.83202 -1.81898 -1.80482 -1.83202 -1.81774 -1.84382 -1.83202 -1.85045 -1.84454 -1.83202 -1.81774 -1.84454 -1.83863 -1.87787 -1.87118 -1.8927 -1.8838 -1.87118 -1.8645 -1.8838 -1.87096 -1.8927 -1.8838 -1.90753 -1.89772 -1.8838 -1.87096 -1.89772 -1.88792 -1.94051 -1.93339 -1.9331 -1.93291 -1.93339 -1.92628 -1.93291 -1.9322 -1.9331 -1.93291 -1.92457 -1.93254 -1.93291 -1.9322 -1.93254 -1.94066 -1.92628 -1.92909 -1.9322 -1.93912 -1.92909 -1.9319 -1.93912 -1.9464 -1.9322 -1.93912 -1.94066 -1.94985 -1.93912 -1.9464 -1.94985 -1.95661 -2.08441 -2.09355 -2.08252 -2.09548 -2.09355 -2.10363 -2.09548 -2.10854 -2.08252 -2.09548 -2.08064 -2.0971 -2.09548 -2.10854 -2.0971 -2.11344 -2.08064 -2.0971 -2.10925 -2.10666 -2.0971 -2.11344 -2.10666 -2.08477 -2.10925 -2.10666 -2.14833 -2.16366 -2.10666 -2.08477 -2.16366 -2.05609 -2.18876 -2.20222 -2.22209 -2.21958 -2.20222 -2.19468 -2.21958 -2.22289 -2.22209 -2.21958 -2.24908 -2.2364 -2.21958 -2.22289 -2.2364 -2.24052 -1.99687 -1.99168 -1.99536 -1.99117 -1.99168 -2.00147 -1.99117 -2.01085 -1.99536 -1.99117 -1.99385 -2.0096 -1.99117 -2.01085 -2.0096 -2.02534 -2.00147 -1.99979 -2.01085 -2.02307 -1.99979 -1.99811 -2.02307 -2.00885 -2.01085 -2.02307 -2.02534 -2.03196 -2.02307 -2.00885 -2.03196 -2.03904 -1.99811 -2.00388 -2.00885 -2.0239 -2.00388 -2.00965 -2.0239 -2.03499 -2.00885 -2.0239 -2.03904 -2.04787 -2.0239 -2.03499 -2.04787 -2.05671 -2.02534 -2.03196 -2.04909 -2.05815 -2.03196 -2.03904 -2.05815 -2.06274 -2.04909 -2.05815 -2.07283 -2.07862 -2.05815 -2.06274 -2.07862 -2.08441 -2.03904 -2.04787 -2.06274 -2.06959 -2.04787 -2.05671 -2.06959 -2.07903 -2.06274 -2.06959 -2.08441 -2.09355 -2.06959 -2.07903 -2.09355 -2.10363 -1.89319 -1.90619 -1.89052 -1.91375 -1.90619 -1.91919 -1.91375 -1.93048 -1.89052 -1.91375 -1.88784 -1.9166 -1.91375 -1.93048 -1.9166 -1.94337 -1.91919 -1.93285 -1.93048 -1.94649 -1.93285 -1.9465 -1.94649 -1.96487 -1.93048 -1.94649 -1.94337 -1.96537 -1.94649 -1.96487 -1.96537 -1.98205 -1.88784 -1.9166 -1.89036 -1.93811 -1.9166 -1.94337 -1.93811 -1.963 -1.89036 -1.93811 -1.93639 -1.95883 -1.93811 -1.963 -1.95883 -1.98485 -1.94337 -1.96537 -1.963 -1.98123 -1.96537 -1.98205 -1.98123 -1.99854 -1.963 -1.98123 -1.98485 -2.01283 -1.98123 -1.99854 -2.01283 -2.01503 -1.93639 -1.95883 -1.98956 -1.99702 -1.95883 -1.98485 -1.99702 -1.99746 -1.98956 -1.99702 -2.03507 -1.99737 -1.99702 -1.99746 -1.99737 -1.97487 -1.98485 -2.01283 -1.99746 -2.01774 -2.01283 -2.01503 -2.01774 -2.0543 -1.99746 -2.01774 -1.97487 -2.00563 -2.01774 -2.0543 -2.00563 -2.08613 -1.84107 -1.85278 -1.83901 -1.85809 -1.85278 -1.85343 -1.85809 -1.86734 -1.83901 -1.85809 -1.85709 -1.87261 -1.85809 -1.86734 -1.87261 -1.8829 -1.85343 -1.85395 -1.86734 -1.87849 -1.85395 -1.87401 -1.87849 -1.88874 -1.86734 -1.87849 -1.8829 -1.89191 -1.87849 -1.88874 -1.89191 -1.90347 -1.85709 -1.87261 -1.88218 -1.89304 -1.87261 -1.8829 -1.89304 -1.89646 -1.88218 -1.89304 -1.9166 -1.91417 -1.89304 -1.89646 -1.91417 -1.91174 -1.8829 -1.89191 -1.89646 -1.90306 -1.89191 -1.90347 -1.90306 -1.91077 -1.89646 -1.90306 -1.91174 -1.9149 -1.90306 -1.91077 -1.9149 -1.91806 -1.80482 -1.83313 -1.81774 -1.84511 -1.83313 -1.85654 -1.84511 -1.86506 -1.81774 -1.84511 -1.83863 -1.85565 -1.84511 -1.86506 -1.85565 -1.87579 -1.85654 -1.87759 -1.86506 -1.88529 -1.87759 -1.89832 -1.88529 -1.90479 -1.86506 -1.88529 -1.87579 -1.89583 -1.88529 -1.90479 -1.89583 -1.91309 -1.83863 -1.85565 -1.85156 -1.87226 -1.85565 -1.87579 -1.87226 -1.89183 -1.85156 -1.87226 -1.8645 -1.88483 -1.87226 -1.89183 -1.88483 -1.90081 -1.87579 -1.89583 -1.89183 -1.90636 -1.89583 -1.91309 -1.90636 -1.91795 -1.89183 -1.90636 -1.90081 -1.91157 -1.90636 -1.91795 -1.91157 -1.92043 -1.89832 -1.90794 -1.90479 -1.91256 -1.90794 -1.91478 -1.91256 -1.92043 -1.90479 -1.91256 -1.91309 -1.91935 -1.91256 -1.92043 -1.91935 -1.92545 -1.91478 -1.92158 -1.92043 -1.92776 -1.92158 -1.92958 -1.92776 -1.93381 -1.92043 -1.92776 -1.92545 -1.9337 -1.92776 -1.93381 -1.9337 -1.93805 -1.91309 -1.91935 -1.91795 -1.92581 -1.91935 -1.92545 -1.92581 -1.93062 -1.91795 -1.92581 -1.92043 -1.92902 -1.92581 -1.93062 -1.92902 -1.93531 -1.92545 -1.9337 -1.93062 -1.93766 -1.9337 -1.93805 -1.93766 -1.9429 -1.93062 -1.93766 -1.93531 -1.94195 -1.93766 -1.9429 -1.94195 -1.94776 -1.8645 -1.88483 -1.87096 -1.89117 -1.88483 -1.90081 -1.89117 -1.90542 -1.87096 -1.89117 -1.88792 -1.90179 -1.89117 -1.90542 -1.90179 -1.91399 -1.90081 -1.91157 -1.90542 -1.91762 -1.91157 -1.92043 -1.91762 -1.92651 -1.90542 -1.91762 -1.91399 -1.92403 -1.91762 -1.92651 -1.92403 -1.93189 -1.88792 -1.90179 -1.9043 -1.91491 -1.90179 -1.91399 -1.91491 -1.92336 -1.9043 -1.91491 -1.92068 -1.92624 -1.91491 -1.92336 -1.92624 -1.93179 -1.91399 -1.92403 -1.92336 -1.93092 -1.92403 -1.93189 -1.93092 -1.9367 -1.92336 -1.93092 -1.93179 -1.93783 -1.93092 -1.9367 -1.93783 -1.94387 -1.92043 -1.92902 -1.92651 -1.93327 -1.92902 -1.93531 -1.93327 -1.94029 -1.92651 -1.93327 -1.93189 -1.93876 -1.93327 -1.94029 -1.93876 -1.94464 -1.93531 -1.94195 -1.94029 -1.94828 -1.94195 -1.94776 -1.94828 -1.95558 -1.94029 -1.94828 -1.94464 -1.95286 -1.94828 -1.95558 -1.95286 -1.9634 -1.93189 -1.93876 -1.9367 -1.94398 -1.93876 -1.94464 -1.94398 -1.9511 -1.9367 -1.94398 -1.94387 -1.95106 -1.94398 -1.9511 -1.95106 -1.95826 -1.94464 -1.95286 -1.9511 -1.96018 -1.95286 -1.9634 -1.96018 -1.96755 -1.9511 -1.96018 -1.95826 -1.96498 -1.96018 -1.96755 -1.96498 -1.9717 -1.91806 -1.91618 -1.92498 -1.92437 -1.91618 -1.91431 -1.92437 -1.92536 -1.92498 -1.92437 -1.9319 -1.93461 -1.92437 -1.92536 -1.93461 -1.93224 -1.91431 -1.91749 -1.92536 -1.92906 -1.91749 -1.92068 -1.92906 -1.93326 -1.92536 -1.92906 -1.93224 -1.93595 -1.92906 -1.93326 -1.93595 -1.94584 -1.9319 -1.93461 -1.9464 -1.94293 -1.93461 -1.93224 -1.94293 -1.94453 -1.9464 -1.94293 -1.95661 -1.95936 -1.94293 -1.94453 -1.95936 -1.96193 -1.93224 -1.93595 -1.94453 -1.95117 -1.93595 -1.94584 -1.95117 -1.95637 -1.94453 -1.95117 -1.96193 -1.9656 -1.95117 -1.95637 -1.9656 -1.96689 -1.92457 -1.93254 -1.93678 -1.94895 -1.93254 -1.94066 -1.94895 -1.95219 -1.93678 -1.94895 -1.94962 -1.9513 -1.94895 -1.95219 -1.9513 -1.95297 -1.94066 -1.94985 -1.95219 -1.95394 -1.94985 -1.95661 -1.95394 -1.95754 -1.95219 -1.95394 -1.95297 -1.95668 -1.95394 -1.95754 -1.95668 -1.96039 -1.95661 -1.95936 -1.95754 -1.9613 -1.95936 -1.96193 -1.9613 -1.96454 -1.95754 -1.9613 -1.96039 -1.96409 -1.9613 -1.96454 -1.96409 -1.96779 -1.96193 -1.9656 -1.96454 -1.96755 -1.9656 -1.96689 -1.96755 -1.96897 -1.96454 -1.96755 -1.96779 -1.96942 -1.96755 -1.96897 -1.96942 -1.97105 -2.08613 -2.06383 -2.10465 -2.11498 -2.06383 -2.05242 -2.11498 -2.116 -2.10465 -2.11498 -2.17754 -2.1828 -2.11498 -2.116 -2.1828 -2.17813 -2.05242 -2.06262 -2.116 -2.11779 -2.06262 -2.07283 -2.11779 -2.11276 -2.116 -2.11779 -2.17813 -2.16825 -2.11779 -2.11276 -2.16825 -2.1527 -2.17754 -2.1828 -2.25412 -2.25291 -2.1828 -2.17813 -2.25291 -2.24389 -2.25412 -2.25291 -2.34073 -2.32288 -2.25291 -2.24389 -2.32288 -2.31231 -2.17813 -2.16825 -2.24389 -2.22703 -2.16825 -2.1527 -2.22703 -2.19433 -2.24389 -2.22703 -2.31231 -2.30516 -2.22703 -2.19433 -2.30516 -2.2674 -2.34073 -2.32288 -2.42019 -2.3937 -2.32288 -2.31231 -2.3937 -2.37881 -2.42019 -2.3937 -2.48259 -2.44962 -2.3937 -2.37881 -2.44962 -2.43155 -2.31231 -2.30516 -2.37881 -2.37806 -2.30516 -2.2674 -2.37806 -2.43519 -2.37881 -2.37806 -2.43155 -2.43416 -2.37806 -2.43519 -2.43416 -2.46679 -2.48259 -2.44962 -2.53847 -2.49669 -2.44962 -2.43155 -2.49669 -2.46862 -2.53847 -2.49669 -2.58437 -2.5186 -2.49669 -2.46862 -2.5186 -2.48908 -2.43155 -2.43416 -2.46862 -2.45465 -2.43416 -2.46679 -2.45465 -2.45465 -2.46862 -2.45465 -2.48908 -2.47042 -2.45465 -2.45465 -2.47042 -2.42958 -1.9465 -1.95298 -1.96487 -1.97127 -1.95298 -1.95945 -1.97127 -1.96844 -1.96487 -1.97127 -1.98205 -1.98946 -1.97127 -1.96844 -1.98946 -1.99687 -1.95945 -1.96547 -1.96844 -1.96957 -1.96547 -1.97149 -1.96957 -1.98648 -1.96844 -1.96957 -1.99687 -1.99168 -1.96957 -1.98648 -1.99168 -2.00147 -2.03988 -2.02168 -2.05774 -2.04694 -2.02168 -2.01826 -2.04694 -2.03807 -2.05774 -2.04694 -2.07561 -2.06636 -2.04694 -2.03807 -2.06636 -2.05788 -2.07561 -2.06636 -2.08269 -2.08942 -2.06636 -2.05788 -2.08942 -2.08286 -2.08269 -2.08942 -2.08978 -2.10409 -2.08942 -2.08286 -2.10409 -2.10657 -2.05788 -2.05508 -2.08286 -2.07406 -2.05508 -2.05227 -2.07406 -2.06965 -2.08286 -2.07406 -2.10657 -2.10122 -2.07406 -2.06965 -2.10122 -2.08703 -2.05609 -2.06982 -2.10389 -2.11479 -2.06982 -2.08356 -2.11479 -2.12059 -2.10389 -2.11479 -2.19468 -2.16535 -2.11479 -2.12059 -2.16535 -2.15113 -2.08356 -2.08667 -2.12059 -2.11703 -2.08667 -2.08978 -2.11703 -2.10437 -2.12059 -2.11703 -2.15113 -2.13535 -2.11703 -2.10437 -2.13535 -2.11768 -2.19468 -2.16535 