# vtk DataFile Version 3.0
#This file was generated by the deal.II library on 2016/5/13 at 16:44:15
ASCII
DATASET UNSTRUCTURED_GRID

POINTS 18272 double
162500 -100000 0
175000 -100000 0
162500 -87500 0
175000 -87500 0
162500 -87500 0
175000 -87500 0
162500 -75000 0
175000 -75000 0
112500 -50000 0
125000 -50000 0
112500 -37500 0
125000 -37500 0
125000 -25000 0
137500 -25000 0
125000 -12500 0
137500 -12500 0
125000 -50000 0
137500 -50000 0
125000 -37500 0
137500 -37500 0
137500 -50000 0
150000 -50000 0
137500 -37500 0
150000 -37500 0
162500 -12500 0
175000 -12500 0
162500 0 0
175000 0 0
125000 -75000 0
137500 -75000 0
125000 -62500 0
137500 -62500 0
137500 -75000 0
150000 -75000 0
137500 -62500 0
150000 -62500 0
125000 -62500 0
137500 -62500 0
125000 -50000 0
137500 -50000 0
137500 -62500 0
150000 -62500 0
137500 -50000 0
150000 -50000 0
175000 -100000 0
187500 -100000 0
175000 -87500 0
187500 -87500 0
187500 -100000 0
200000 -100000 0
187500 -87500 0
200000 -87500 0
175000 -87500 0
187500 -87500 0
175000 -75000 0
187500 -75000 0
187500 -87500 0
200000 -87500 0
187500 -75000 0
200000 -75000 0
150000 -75000 0
162500 -75000 0
150000 -62500 0
162500 -62500 0
162500 -75000 0
175000 -75000 0
162500 -62500 0
175000 -62500 0
150000 -62500 0
162500 -62500 0
150000 -50000 0
162500 -50000 0
162500 -62500 0
175000 -62500 0
162500 -50000 0
175000 -50000 0
175000 -75000 0
187500 -75000 0
175000 -62500 0
187500 -62500 0
187500 -75000 0
200000 -75000 0
187500 -62500 0
200000 -62500 0
175000 -62500 0
187500 -62500 0
175000 -50000 0
187500 -50000 0
187500 -62500 0
200000 -62500 0
187500 -50000 0
200000 -50000 0
150000 -50000 0
162500 -50000 0
150000 -37500 0
162500 -37500 0
162500 -50000 0
175000 -50000 0
162500 -37500 0
175000 -37500 0
150000 -37500 0
162500 -37500 0
150000 -25000 0
162500 -25000 0
162500 -37500 0
175000 -37500 0
162500 -25000 0
175000 -25000 0
175000 -50000 0
187500 -50000 0
175000 -37500 0
187500 -37500 0
187500 -50000 0
200000 -50000 0
187500 -37500 0
200000 -37500 0
175000 -37500 0
187500 -37500 0
175000 -25000 0
187500 -25000 0
187500 -37500 0
200000 -37500 0
187500 -25000 0
200000 -25000 0
175000 -25000 0
187500 -25000 0
175000 -12500 0
187500 -12500 0
187500 -25000 0
200000 -25000 0
187500 -12500 0
200000 -12500 0
175000 -12500 0
187500 -12500 0
175000 0 0
187500 0 0
187500 -12500 0
200000 -12500 0
187500 0 0
200000 0 0
87500 -75000 0
93750 -75000 0
87500 -68750 0
93750 -68750 0
43750 -43750 0
50000 -43750 0
43750 -37500 0
50000 -37500 0
75000 -56250 0
81250 -56250 0
75000 -50000 0
81250 -50000 0
81250 -56250 0
87500 -56250 0
81250 -50000 0
87500 -50000 0
87500 -62500 0
93750 -62500 0
87500 -56250 0
93750 -56250 0
93750 -62500 0
100000 -62500 0
93750 -56250 0
100000 -56250 0
87500 -56250 0
93750 -56250 0
87500 -50000 0
93750 -50000 0
93750 -56250 0
100000 -56250 0
93750 -50000 0
100000 -50000 0
56250 -50000 0
62500 -50000 0
56250 -43750 0
62500 -43750 0
50000 -43750 0
56250 -43750 0
50000 -37500 0
56250 -37500 0
62500 -50000 0
68750 -50000 0
62500 -43750 0
68750 -43750 0
68750 -50000 0
75000 -50000 0
68750 -43750 0
75000 -43750 0
75000 -50000 0
81250 -50000 0
75000 -43750 0
81250 -43750 0
81250 -50000 0
87500 -50000 0
81250 -43750 0
87500 -43750 0
75000 -43750 0
81250 -43750 0
75000 -37500 0
81250 -37500 0
118750 -100000 0
125000 -100000 0
118750 -93750 0
125000 -93750 0
118750 -87500 0
125000 -87500 0
118750 -81250 0
125000 -81250 0
100000 -68750 0
106250 -68750 0
100000 -62500 0
106250 -62500 0
106250 -68750 0
112500 -68750 0
106250 -62500 0
112500 -62500 0
118750 -25000 0
125000 -25000 0
118750 -18750 0
125000 -18750 0
118750 -18750 0
125000 -18750 0
118750 -12500 0
125000 -12500 0
118750 -6250 0
125000 -6250 0
118750 0 0
125000 0 0
106250 -37500 0
112500 -37500 0
106250 -31250 0
112500 -31250 0
112500 -37500 0
118750 -37500 0
112500 -31250 0
118750 -31250 0
118750 -37500 0
125000 -37500 0
118750 -31250 0
125000 -31250 0
112500 -31250 0
118750 -31250 0
112500 -25000 0
118750 -25000 0
118750 -31250 0
125000 -31250 0
118750 -25000 0
125000 -25000 0
87500 -50000 0
93750 -50000 0
87500 -43750 0
93750 -43750 0
93750 -50000 0
100000 -50000 0
93750 -43750 0
100000 -43750 0
87500 -43750 0
93750 -43750 0
87500 -37500 0
93750 -37500 0
93750 -43750 0
100000 -43750 0
93750 -37500 0
100000 -37500 0
87500 -37500 0
93750 -37500 0
87500 -31250 0
93750 -31250 0
93750 -37500 0
100000 -37500 0
93750 -31250 0
100000 -31250 0
87500 -31250 0
93750 -31250 0
87500 -25000 0
93750 -25000 0
93750 -31250 0
100000 -31250 0
93750 -25000 0
100000 -25000 0
100000 -87500 0
106250 -87500 0
100000 -81250 0
106250 -81250 0
106250 -87500 0
112500 -87500 0
106250 -81250 0
112500 -81250 0
100000 -81250 0
106250 -81250 0
100000 -75000 0
106250 -75000 0
106250 -81250 0
112500 -81250 0
106250 -75000 0
112500 -75000 0
125000 -100000 0
131250 -100000 0
125000 -93750 0
131250 -93750 0
131250 -100000 0
137500 -100000 0
131250 -93750 0
137500 -93750 0
125000 -93750 0
131250 -93750 0
125000 -87500 0
131250 -87500 0
131250 -93750 0
137500 -93750 0
131250 -87500 0
137500 -87500 0
137500 -100000 0
143750 -100000 0
137500 -93750 0
143750 -93750 0
143750 -100000 0
150000 -100000 0
143750 -93750 0
150000 -93750 0
137500 -93750 0
143750 -93750 0
137500 -87500 0
143750 -87500 0
143750 -93750 0
150000 -93750 0
143750 -87500 0
150000 -87500 0
125000 -87500 0
131250 -87500 0
125000 -81250 0
131250 -81250 0
131250 -87500 0
137500 -87500 0
131250 -81250 0
137500 -81250 0
125000 -81250 0
131250 -81250 0
125000 -75000 0
131250 -75000 0
131250 -81250 0
137500 -81250 0
131250 -75000 0
137500 -75000 0
137500 -87500 0
143750 -87500 0
137500 -81250 0
143750 -81250 0
143750 -87500 0
150000 -87500 0
143750 -81250 0
150000 -81250 0
137500 -81250 0
143750 -81250 0
137500 -75000 0
143750 -75000 0
143750 -81250 0
150000 -81250 0
143750 -75000 0
150000 -75000 0
112500 -75000 0
118750 -75000 0
112500 -68750 0
118750 -68750 0
118750 -75000 0
125000 -75000 0
118750 -68750 0
125000 -68750 0
112500 -68750 0
118750 -68750 0
112500 -62500 0
118750 -62500 0
118750 -68750 0
125000 -68750 0
118750 -62500 0
125000 -62500 0
100000 -62500 0
106250 -62500 0
100000 -56250 0
106250 -56250 0
106250 -62500 0
112500 -62500 0
106250 -56250 0
112500 -56250 0
100000 -56250 0
106250 -56250 0
100000 -50000 0
106250 -50000 0
106250 -56250 0
112500 -56250 0
106250 -50000 0
112500 -50000 0
112500 -62500 0
118750 -62500 0
112500 -56250 0
118750 -56250 0
118750 -62500 0
125000 -62500 0
118750 -56250 0
125000 -56250 0
112500 -56250 0
118750 -56250 0
112500 -50000 0
118750 -50000 0
118750 -56250 0
125000 -56250 0
118750 -50000 0
125000 -50000 0
100000 -25000 0
106250 -25000 0
100000 -18750 0
106250 -18750 0
106250 -25000 0
112500 -25000 0
106250 -18750 0
112500 -18750 0
100000 -18750 0
106250 -18750 0
100000 -12500 0
106250 -12500 0
106250 -18750 0
112500 -18750 0
106250 -12500 0
112500 -12500 0
100000 -12500 0
106250 -12500 0
100000 -6250 0
106250 -6250 0
106250 -12500 0
112500 -12500 0
106250 -6250 0
112500 -6250 0
100000 -6250 0
106250 -6250 0
100000 0 0
106250 0 0
106250 -6250 0
112500 -6250 0
106250 0 0
112500 0 0
150000 -100000 0
156250 -100000 0
150000 -93750 0
156250 -93750 0
156250 -100000 0
162500 -100000 0
156250 -93750 0
162500 -93750 0
150000 -93750 0
156250 -93750 0
150000 -87500 0
156250 -87500 0
156250 -93750 0
162500 -93750 0
156250 -87500 0
162500 -87500 0
150000 -87500 0
156250 -87500 0
150000 -81250 0
156250 -81250 0
156250 -87500 0
162500 -87500 0
156250 -81250 0
162500 -81250 0
150000 -81250 0
156250 -81250 0
150000 -75000 0
156250 -75000 0
156250 -81250 0
162500 -81250 0
156250 -75000 0
162500 -75000 0
100000 -50000 0
106250 -50000 0
100000 -43750 0
106250 -43750 0
106250 -50000 0
112500 -50000 0
106250 -43750 0
112500 -43750 0
100000 -43750 0
106250 -43750 0
100000 -37500 0
106250 -37500 0
106250 -43750 0
112500 -43750 0
106250 -37500 0
112500 -37500 0
137500 -25000 0
143750 -25000 0
137500 -18750 0
143750 -18750 0
143750 -25000 0
150000 -25000 0
143750 -18750 0
150000 -18750 0
137500 -18750 0
143750 -18750 0
137500 -12500 0
143750 -12500 0
143750 -18750 0
150000 -18750 0
143750 -12500 0
150000 -12500 0
125000 -12500 0
131250 -12500 0
125000 -6250 0
131250 -6250 0
131250 -12500 0
137500 -12500 0
131250 -6250 0
137500 -6250 0
125000 -6250 0
131250 -6250 0
125000 0 0
131250 0 0
131250 -6250 0
137500 -6250 0
131250 0 0
137500 0 0
137500 -12500 0
143750 -12500 0
137500 -6250 0
143750 -6250 0
143750 -12500 0
150000 -12500 0
143750 -6250 0
150000 -6250 0
137500 -6250 0
143750 -6250 0
137500 0 0
143750 0 0
143750 -6250 0
150000 -6250 0
143750 0 0
150000 0 0
125000 -37500 0
131250 -37500 0
125000 -31250 0
131250 -31250 0
131250 -37500 0
137500 -37500 0
131250 -31250 0
137500 -31250 0
125000 -31250 0
131250 -31250 0
125000 -25000 0
131250 -25000 0
131250 -31250 0
137500 -31250 0
131250 -25000 0
137500 -25000 0
137500 -37500 0
143750 -37500 0
137500 -31250 0
143750 -31250 0
143750 -37500 0
150000 -37500 0
143750 -31250 0
150000 -31250 0
137500 -31250 0
143750 -31250 0
137500 -25000 0
143750 -25000 0
143750 -31250 0
150000 -31250 0
143750 -25000 0
150000 -25000 0
150000 -25000 0
156250 -25000 0
150000 -18750 0
156250 -18750 0
156250 -25000 0
162500 -25000 0
156250 -18750 0
162500 -18750 0
150000 -18750 0
156250 -18750 0
150000 -12500 0
156250 -12500 0
156250 -18750 0
162500 -18750 0
156250 -12500 0
162500 -12500 0
162500 -25000 0
168750 -25000 0
162500 -18750 0
168750 -18750 0
168750 -25000 0
175000 -25000 0
168750 -18750 0
175000 -18750 0
162500 -18750 0
168750 -18750 0
162500 -12500 0
168750 -12500 0
168750 -18750 0
175000 -18750 0
168750 -12500 0
175000 -12500 0
150000 -12500 0
156250 -12500 0
150000 -6250 0
156250 -6250 0
156250 -12500 0
162500 -12500 0
156250 -6250 0
162500 -6250 0
150000 -6250 0
156250 -6250 0
150000 0 0
156250 0 0
156250 -6250 0
162500 -6250 0
156250 0 0
162500 0 0
0 -100000 0
3125 -100000 0
0 -96875 0
3125 -96875 0
3125 -100000 0
6250 -100000 0
3125 -96875 0
6250 -96875 0
0 -96875 0
3125 -96875 0
0 -93750 0
3125 -93750 0
3125 -96875 0
6250 -96875 0
3125 -93750 0
[...]
POINT_DATA 18272
SCALARS velocity double 1
LOOKUP_TABLE default
-367.908 -388.321 -367.864 -388.287 -367.864 -388.287 -367.733 -388.192 -285.073 -305.63 -284.075 -304.956 -304.369 -325.337 -303.98 -325.073 -305.63 -326.192 -304.956 -325.734 -326.192 -346.755 -325.734 -346.439 -366.776 -387.481 -366.729 -387.449 -306.87 -327.033 -306.305 -326.649 -327.033 -347.335 -326.649 -347.07 -306.305 -326.649 -305.63 -326.192 -326.649 -347.07 -326.192 -346.755 -388.321 -408.804 -388.287 -408.777 -408.804 -429.343 -408.777 -429.318 -388.287 -408.777 -388.192 -408.7 -408.777 -429.318 -408.7 -429.247 -347.335 -367.733 -347.07 -367.543 -367.733 -388.192 -367.543 -388.051 -347.07 -367.543 -346.755 -367.32 -367.543 -388.051 -367.32 -387.885 -388.192 -408.7 -388.051 -408.586 -408.7 -429.247 -408.586 -429.141 -388.051 -408.586 -387.885 -408.451 -408.586 -429.141 -408.451 -429.016 -346.755 -367.32 -346.439 -367.096 -367.32 -387.885 -367.096 -387.719 -346.439 -367.096 -346.168 -366.908 -367.096 -387.719 -366.908 -387.576 -387.885 -408.451 -387.719 -408.316 -408.451 -429.016 -408.316 -428.891 -387.719 -408.316 -387.576 -408.201 -408.316 -428.891 -408.201 -428.785 -387.576 -408.201 -387.481 -408.124 -408.201 -428.785 -408.124 -428.714 -387.481 -408.124 -387.449 -408.097 -408.124 -428.714 -408.097 -428.689 -247.958 -257.52 -247.133 -256.837 -169.043 -179.612 -164.462 -175.91 -225.21 -235.128 -223.579 -233.79 -235.128 -245.128 -233.79 -244.024 -246.179 -256.045 -245.128 -255.183 -256.045 -265.995 -255.183 -265.282 -245.128 -255.183 -244.024 -254.274 -255.183 -265.282 -254.274 -264.535 -193.236 -203.278 -190.214 -200.809 -179.612 -190.214 -175.91 -187.201 -203.278 -213.401 -200.809 -211.379 -213.401 -223.579 -211.379 -221.917 -223.579 -233.79 -221.917 -232.427 -233.79 -244.024 -232.427 -242.906 -221.917 -232.427 -220.285 -231.094 -297.475 -307.382 -297.431 -307.349 -297.311 -307.25 -297.116 -307.09 -266.648 -276.541 -265.995 -276.005 -276.541 -286.509 -276.005 -286.064 -293.826 -304.369 -293.552 -304.174 -293.552 -304.174 -293.351 -303.98 -293.222 -303.873 -293.175 -303.841 -273.585 -284.075 -273.025 -283.614 -284.075 -294.516 -283.614 -294.151 -294.516 -304.956 -294.151 -304.639 -283.614 -294.151 -283.213 -293.826 -294.151 -304.639 -293.826 -304.369 -244.024 -254.274 -242.906 -253.355 -254.274 -264.535 -253.355 -263.781 -242.906 -253.355 -241.811 -252.461 -253.355 -263.781 -252.461 -263.049 -241.811 -252.461 -240.791 -251.629 -252.461 -263.049 -251.629 -262.364 -240.791 -251.629 -239.891 -250.897 -251.629 -262.364 -250.897 -261.764 -268.02 -277.677 -267.68 -277.395 -277.677 -287.449 -277.395 -287.216 -267.68 -277.395 -267.215 -277.011 -277.395 -287.216 -277.011 -286.897 -307.382 -317.358 -307.349 -317.33 -317.358 -327.389 -317.33 -327.366 -307.349 -317.33 -307.25 -317.249 -317.33 -327.366 -317.249 -327.299 -327.389 -337.466 -327.366 -337.447 -337.466 -347.581 -337.447 -347.566 -327.366 -337.447 -327.299 -337.391 -337.447 -347.566 -337.391 -347.519 -307.25 -317.249 -307.09 -317.117 -317.249 -327.299 -317.117 -327.19 -307.09 -317.117 -306.87 -316.951 -317.117 -327.19 -316.951 -327.033 -327.299 -337.391 -327.19 -337.299 -337.391 -347.519 -337.299 -347.444 -327.19 -337.299 -327.033 -337.184 -337.299 -347.444 -337.184 -347.335 -286.897 -296.848 -286.509 -296.531 -296.848 -306.87 -296.531 -306.588 -286.509 -296.531 -286.064 -296.164 -296.531 -306.588 -296.164 -306.305 -265.995 -276.005 -265.282 -275.417 -276.005 -286.064 -275.417 -285.581 -265.282 -275.417 -264.535 -274.803 -275.417 -285.581 -274.803 -285.073 -286.064 -296.164 -285.581 -295.767 -296.164 -306.305 -295.767 -305.968 -285.581 -295.767 -285.073 -295.351 -295.767 -305.968 -295.351 -305.63 -261.764 -272.535 -261.261 -272.124 -272.535 -283.213 -272.124 -282.88 -261.261 -272.124 -260.89 -271.819 -272.124 -282.88 -271.819 -282.631 -260.89 -271.819 -260.66 -271.631 -271.819 -282.631 -271.631 -282.477 -260.66 -271.631 -260.582 -271.568 -271.631 -282.477 -271.568 -282.425 -347.581 -357.728 -347.566 -357.716 -357.728 -367.908 -357.716 -367.886 -347.566 -357.716 -347.519 -357.676 -357.716 -367.886 -357.676 -367.864 -347.519 -357.676 -347.444 -357.613 -357.676 -367.864 -357.613 -367.798 -347.444 -357.613 -347.335 -357.534 -357.613 -367.798 -357.534 -367.733 -264.535 -274.803 -263.781 -274.184 -274.803 -285.073 -274.184 -284.574 -263.781 -274.184 -263.049 -273.585 -274.184 -284.574 -273.585 -284.075 -325.337 -335.77 -325.205 -335.644 -335.77 -346.168 -335.644 -346.064 -325.205 -335.644 -325.073 -335.55 -335.644 -346.064 -335.55 -345.987 -303.98 -314.527 -303.873 -314.463 -314.527 -325.073 -314.463 -324.998 -303.873 -314.463 -303.841 -314.435 -314.463 -324.998 -314.435 -324.975 -325.073 -335.55 -324.998 -335.489 -335.55 -345.987 -335.489 -345.939 -324.998 -335.489 -324.975 -335.469 -335.489 -345.939 -335.469 -345.922 -304.956 -315.345 -304.639 -315.094 -315.345 -325.734 -315.094 -325.517 -304.639 -315.094 -304.369 -314.853 -315.094 -325.517 -314.853 -325.337 -325.734 -336.086 -325.517 -335.919 -336.086 -346.439 -335.919 -346.303 -325.517 -335.919 -325.337 -335.77 -335.919 -346.303 -335.77 -346.168 -346.168 -356.538 -346.064 -356.458 -356.538 -366.908 -356.458 -366.829 -346.064 -356.458 -345.987 -356.395 -356.458 -366.829 -356.395 -366.776 -366.908 -377.242 -366.829 -377.184 -377.242 -387.576 -377.184 -387.529 -366.829 -377.184 -366.776 -377.129 -377.184 -387.529 -377.129 -387.481 -345.987 -356.395 -345.939 -356.355 -356.395 -366.776 -356.355 -366.753 -345.939 -356.355 -345.922 -356.343 -356.355 -366.753 -356.343 -366.729 -168.441 -168.578 -168.304 -168.441 -168.578 -168.988 -168.441 -168.853 -168.304 -168.441 -167.892 -168.03 -168.441 -168.853 -168.03 -168.445 -168.988 -169.668 -168.853 -169.535 -169.668 -170.614 -169.535 -170.484 -168.853 -169.535 -168.445 -169.134 -169.535 -170.484 -169.134 -170.092 -167.892 -168.03 -167.201 -167.342 -168.03 -168.445 -167.342 -167.764 -167.201 -167.342 -166.229 -166.372 -167.342 -167.764 -166.372 -166.804 -168.445 -169.134 -167.764 -168.464 -169.134 -170.092 -168.464 -169.436 -167.764 -168.464 -166.804 -167.52 -168.464 -169.436 -167.52 -168.514 -170.614 -171.821 -170.484 -171.694 -171.821 -173.282 -171.694 -173.159 -170.484 -171.694 -170.092 -171.313 -171.694 -173.159 -171.313 -172.789 -173.282 -174.988 -173.159 -174.869 -174.988 -176.931 -174.869 -176.817 -173.159 -174.869 -172.789 -174.513 -174.869 -176.817 -174.513 -176.475 -170.092 -171.313 -169.436 -170.675 -171.313 -172.789 -170.675 -172.172 -169.436 -170.675 -168.514 -169.779 -170.675 -172.172 -169.779 -171.305 -172.789 -174.513 -172.172 -173.919 -174.513 -176.475 -173.919 -175.906 -172.172 -173.919 -171.305 -173.085 -173.919 -175.906 -173.085 -175.107 -166.229 -166.372 -164.969 -165.115 -166.372 -166.804 -165.115 -165.554 -166.804 -167.52 -165.554 -166.301 -167.52 -168.514 -166.301 -167.321 -166.301 -167.321 -164.796 -165.851 -168.514 -169.779 -167.321 -168.619 -169.779 -171.305 -168.619 -170.185 -167.321 -168.619 -165.851 -167.191 -168.619 -170.185 -167.191 -168.806 -171.305 -173.085 -170.185 -172.008 -173.085 -175.107 -172.008 -174.078 -170.185 -172.008 -168.806 -170.685 -172.008 -174.078 -170.685 -172.814 -165.851 -167.191 -164.095 -165.488 -167.191 -168.806 -165.488 -167.164 -165.488 -167.164 -163.5 -165.251 -168.806 -170.685 -167.164 -169.11 -170.685 -172.814 -169.11 -171.312 -167.164 -169.11 -165.251 -167.28 -169.11 -171.312 -167.28 -169.57 -176.931 -179.109 -176.817 -178.99 -176.817 -178.99 -176.475 -178.663 -178.99 -181.37 -178.663 -181.069 -181.37 -183.97 -181.069 -183.682 -176.475 -178.663 -175.906 -178.121 -178.663 -181.069 -178.121 -180.556 -175.906 -178.121 -175.107 -177.361 -178.121 -180.556 -177.361 -179.835 -181.069 -183.682 -180.556 -183.197 -180.556 -183.197 -179.835 -182.516 -180.381 -185.103 -178.408 -183.31 -218.883 -223.031 -218.835 -222.987 -223.031 -227.269 -222.987 -227.227 -227.269 -231.587 -227.227 -231.551 -175.107 -177.361 -174.078 -176.381 -177.361 -179.835 -176.381 -178.907 -174.078 -176.381 -172.814 -175.18 -176.381 -178.907 -175.18 -177.77 -179.835 -182.516 -178.907 -181.64 -178.907 -181.64 -177.77 -180.569 -172.814 -175.18 -171.312 -173.755 -175.18 -177.77 -173.755 -176.424 -171.312 -173.755 -169.57 -172.105 -173.755 -176.424 -172.105 -174.868 -177.77 -180.569 -176.424 -179.302 -176.424 -179.302 -174.868 -177.841 -221.499 -225.862 -220.959 -225.368 -165.251 -167.28 -163.059 -165.188 -167.28 -169.57 -165.188 -167.585 -165.188 -167.585 -162.837 -165.349 -162.837 -165.349 -160.194 -162.858 -160.194 -162.858 -157.261 -160.111 -169.57 -172.105 -167.585 -170.227 -172.105 -174.868 -170.227 -173.101 -167.585 -170.227 -165.349 -168.12 -170.227 -173.101 -168.12 -171.123 -174.868 -177.841 -173.101 -176.185 -173.101 -176.185 -171.123 -174.337 -165.349 -168.12 -162.858 -165.781 -168.12 -171.123 -165.781 -168.935 -162.858 -165.781 -160.111 -163.212 -165.781 -168.935 -163.212 -166.539 -171.123 -174.337 -168.935 -172.298 -168.935 -172.298 -166.539 -170.067 -186.862 -189.828 -186.768 -189.742 -189.828 -192.968 -189.742 -192.887 -186.768 -189.742 -186.491 -189.483 -189.742 -192.887 -189.483 -192.645 -204.482 -208.958 -203.349 -207.923 -192.974 -197.53 -191.459 -196.149 -160.111 -163.212 -157.116 -160.413 -163.212 -166.539 -160.413 -163.947 -157.116 -160.413 -153.848 -157.386 -160.413 -163.947 -157.386 -161.147 -153.848 -157.386 -150.328 -154.136 -157.386 -161.147 -154.136 -158.156 -150.328 -154.136 -146.548 -150.679 -198.843 -203.349 -197.53 -202.15 -203.349 -207.923 -202.15 -206.829 -197.53 -202.15 -196.149 -200.893 -202.15 -206.829 -200.893 -205.684 -186.835 -191.459 -185.103 -189.883 -191.459 -196.149 -189.883 -194.715 -185.103 -189.883 -183.31 -188.255 -189.883 -194.715 -188.255 -193.236 -133.951 -139.299 -129.45 -135.301 -139.299 -144.735 -135.301 -141.167 -161.355 -166.308 -158.558 -163.787 -166.308 -171.326 -163.787 -169.043 -152.869 -158.681 -150.047 -156.164 -158.681 -164.462 -156.164 -162.203 -164.462 -170.186 -162.203 -168.178 -170.186 -175.91 -168.178 -174.087 -175.91 -181.555 -174.087 -179.941 -181.555 -187.201 -179.941 -185.733 -187.201 -192.794 -185.733 -191.476 -192.794 -198.353 -191.476 -197.168 -185.733 -191.476 -184.325 -190.21 -191.476 -197.168 -190.21 -196.028 -190.21 -196.028 -189.007 -194.948 -221.02 -226.875 -220.821 -226.693 -142.644 -146.548 -138.269 -142.551 -138.269 -142.551 -133.608 -138.333 -123.645 -129.45 -118.486 -124.909 -232.88 -238.581 -232.657 -238.38 -226.875 -232.657 -226.693 -232.496 -232.657 -238.38 -232.496 -238.235 -129.45 -135.301 -124.909 -131.29 -135.301 -141.167 -131.29 -137.609 -214.732 -220.702 -214.686 -220.659 -220.702 -226.584 -220.659 -226.549 -120.407 -127.333 -116.059 -123.525 -130.758 -137.8 -127.602 -135.004 -137.8 -144.656 -135.004 -142.183 -226.693 -232.496 -226.584 -232.398 -232.496 -238.235 -232.398 -238.147 -226.584 -232.398 -226.549 -232.366 -232.398 -238.147 -232.366 -238.118 -135.004 -142.183 -132.436 -139.906 -142.183 -149.163 -139.906 -147.138 -139.906 -147.138 -137.853 -145.323 -147.138 -154.163 -145.323 -152.548 -137.853 -145.323 -136.094 -143.744 -145.323 -152.548 -143.744 -151.14 -143.744 -151.14 -142.413 -149.963 -152.548 -159.564 -151.14 -158.309 -151.14 -158.309 -149.963 -157.258 -158.309 -165.275 -157.258 -164.329 -142.413 -149.963 -141.385 -149.031 -149.963 -157.258 -149.031 -156.425 -157.258 -164.329 -156.425 -163.594 -149.031 -156.425 -148.346 -155.823 -156.425 -163.594 -155.823 -163.057 -148.346 -155.823 -147.942 -155.456 -155.823 -163.057 -155.456 -162.73 -147.942 -155.456 -147.806 -155.334 -155.456 -162.73 -155.334 -162.61 -192.968 -196.269 -192.887 -196.194 -196.269 -199.72 -196.194 -199.65 -192.887 -196.194 -192.645 -195.968 -196.194 -199.65 -195.968 -199.441 -186.491 -189.483 -186.033 -189.053 -189.483 -192.645 -189.053 -192.243 -186.033 -189.053 -185.392 -188.452 -189.053 -192.243 -188.452 -191.681 -192.645 -195.968 -192.243 -195.593 -195.968 -199.441 -195.593 -199.092 -192.243 -195.593 -191.681 -195.07 -195.593 -199.092 -195.07 -198.606 -185.392 -188.452 -184.569 -187.68 -188.452 -191.681 -187.68 -190.961 -184.569 -187.68 -183.563 -186.739 -187.68 -190.961 -186.739 -190.083 -191.681 -195.07 -190.961 -194.399 -195.07 -198.606 -194.399 -197.983 -190.961 -194.399 -190.083 -193.583 -194.399 -197.983 -193.583 -197.226 -163.594 -170.561 -163.057 -170.074 -183.563 -186.739 -182.376 -185.63 -186.739 -190.083 -185.63 -189.05 -182.376 -185.63 -181.008 -184.355 -185.63 -189.05 -184.355 -187.865 -163.057 -170.074 -162.73 -169.791 -190.083 -193.583 -189.05 -192.623 -193.583 -197.226 -192.623 -196.337 -189.05 -192.623 -187.865 -191.524 -192.623 -196.337 -191.524 -195.32 -181.008 -184.355 -179.463 -182.916 -184.355 -187.865 -182.916 -186.53 -179.463 -182.916 -177.741 -181.318 -182.916 -186.53 -181.318 -185.05 -187.865 -191.524 -186.53 -190.288 -191.524 -195.32 -190.288 -194.179 -186.53 -190.288 -185.05 -188.921 -190.288 -194.179 -188.921 -192.919 -177.741 -181.318 -175.848 -179.566 -181.318 -185.05 -179.566 -183.431 -175.848 -179.566 -173.79 -177.665 -179.566 -183.431 -177.665 -181.68 -185.05 -188.921 -183.431 -187.429 -188.921 -192.919 -187.429 -191.546 -183.431 -187.429 -181.68 -185.82 -187.429 -191.546 -185.82 -190.068 -173.79 -177.665 -171.574 -175.625 -177.665 -181.68 -175.625 -179.806 -171.574 -175.625 -169.208 -173.455 -175.625 -179.806 -173.455 -177.819 -181.68 -185.82 -179.806 -184.101 -185.82 -190.068 -184.101 -188.497 -179.806 -184.101 -177.819 -182.281 -184.101 -188.497 -182.281 -186.835 -169.208 -173.455 -166.705 -171.167 -173.455 -177.819 -171.167 -175.735 -166.705 -171.167 -164.078 -168.777 -171.167 -175.735 -168.777 -173.561 -199.72 -203.312 -199.65 -203.247 -203.312 -207.034 -203.247 -206.974 -199.65 -203.247 -199.441 -203.053 -203.247 -206.974 -203.053 -206.793 -207.034 -210.876 -206.974 -210.82 -210.876 -214.829 -210.82 -214.779 -206.974 -210.82 -206.793 -210.653 -210.82 -214.779 -210.653 -214.623 -199.441 -203.053 -199.092 -202.729 -203.053 -206.793 -202.729 -206.494 -199.092 -202.729 -198.606 -202.278 -202.729 -206.494 -202.278 -206.077 -206.793 -210.653 -206.494 -210.377 -210.653 -214.623 -210.377 -214.367 -206.494 -210.377 -206.077 -209.992 -210.377 -214.367 -209.992 -214.013 -214.623 -218.691 -214.367 -218.459 -218.691 -222.86 -218.459 -222.645 -214.367 -218.459 -214.013 -218.13 -218.459 -222.645 -218.13 -222.343 -198.606 -202.278 -197.983 -201.701 -202.278 -206.077 -201.701 -205.544 -197.983 -201.701 -197.226 -201 -201.701 -205.544 -201 -204.896 -206.077 -209.992 -205.544 -209.5 -209.992 -214.013 -209.5 -213.564 -205.544 -209.5 -204.896 -208.904 -209.5 -213.564 -208.904 -213.014 -197.226 -201 -196.337 -200.179 -201 -204.896 -200.179 -204.138 -196.337 -200.179 -195.32 -199.24 -200.179 -204.138 -199.24 -203.272 -204.896 -208.904 -204.138 -208.205 -208.904 -213.014 -208.205 -212.372 -204.138 -208.205 -203.272 -207.404 -208.205 -212.372 -207.404 -211.637 -257.52 -262.35 -257.179 -262.053 -262.35 -267.215 -262.053 -266.945 -257.179 -262.053 -256.837 -261.728 -262.053 -266.945 -261.728 -266.648 -247.133 -251.985 -246.672 -251.553 -251.985 -256.837 -251.553 -256.458 -246.672 -251.553 -246.179 -251.112 -251.553 -256.458 -251.112 -256.045 -256.837 -261.728 -256.458 -261.382 -261.728 -266.648 -261.382 -266.321 -256.458 -261.382 -256.045 -261.02 -261.382 -266.321 -261.02 -265.995 -231.587 -235.979 -231.551 -235.946 -235.979 -240.437 -235.946 -240.406 -231.551 -235.946 -231.445 -235.846 -235.946 -240.406 -235.846 -240.315 -240.437 -244.956 -240.406 -244.928 -244.956 -249.531 -244.928 -249.505 -240.406 -244.928 -240.315 -244.844 -244.928 -249.505 -244.844 -249.428 -231.445 -235.846 -231.263 -235.681 -235.846 -240.315 -235.681 -240.163 -231.263 -235.681 -231.011 -235.45 -235.681 -240.163 -235.45 -239.952 -240.315 -244.844 -240.163 -244.705 -244.844 -249.428 -244.705 -249.301 -240.163 -244.705 -239.952 -244.512 -244.705 -249.301 -244.512 -249.125 -249.531 -254.157 -249.505 -254.134 -254.157 -258.83 -254.134 -258.809 -249.505 -254.134 -249.428 -254.064 -254.134 -258.809 -254.064 -258.745 -258.83 -263.546 -258.809 -263.527 -263.546 -268.301 -263.527 -268.283 -258.809 -263.527 -258.745 -263.469 -263.527 -268.283 -263.469 -268.231 -249.428 -254.064 -249.301 -253.947 -254.064 -258.745 -253.947 -258.639 -249.301 -253.947 -249.125 -253.786 -253.947 -258.639 -253.786 -258.491 -258.745 -263.469 -258.639 -263.372 -263.469 -268.231 -263.372 -268.144 -258.639 -263.372 -258.491 -263.235 -263.372 -268.144 -263.235 -268.02 -231.011 -235.45 -230.689 -235.155 -235.45 -239.952 -235.155 -239.683 -230.689 -235.155 -230.3 -234.8 -235.155 -239.683 -234.8 -239.358 -239.952 -244.512 -239.683 -244.266 -244.512 -249.125 -244.266 -248.901 -239.683 -244.266 -239.358 -243.97 -244.266 -248.901 -243.97 -248.631 -230.3 -234.8 -229.848 -234.385 -234.8 -239.358 -234.385 -238.979 -229.848 -234.385 -229.331 -233.914 -234.385 -238.979 -233.914 -238.549 -239.358 -243.97 -238.979 -243.624 -243.97 -248.631 -243.624 -248.317 -238.979 -243.624 -238.549 -243.23 -243.624 -248.317 -243.23 -247.958 -195.32 -199.24 -194.179 -198.189 -199.24 -203.272 -198.189 -202.308 -194.179 -198.189 -192.919 -197.029 -198.189 -202.308 -197.029 -201.242 -192.919 -197.029 -191.546 -195.768 -197.029 -201.242 -195.768 -200.085 -191.546 -195.768 -190.068 -194.41 -195.768 -200.085 -194.41 -198.843 -249.125 -253.786 -248.901 -253.582 -253.786 -258.491 -253.582 -258.304 -248.901 -253.582 -248.631 -253.335 -253.582 -258.304 -253.335 -258.079 -258.491 -263.235 -258.304 -263.065 -263.235 -268.02 -263.065 -267.85 -258.304 -263.065 -258.079 -262.858 -263.065 -267.85 -262.858 -267.68 -248.631 -253.335 -248.317 -253.05 -253.335 -258.079 -253.05 -257.819 -248.317 -253.05 -247.958 -252.739 -253.05 -257.819 -252.739 -257.52 -258.079 -262.858 -257.819 -262.621 -262.858 -267.68 -262.621 -267.447 -257.819 -262.621 -257.52 -262.35 -262.621 -267.447 -262.35 -267.215 -196.149 -200.893 -194.715 -199.589 -200.893 -205.684 -199.589 -204.5 -194.715 -199.589 -193.236 -198.257 -199.589 -204.5 -198.257 -203.278 -211.637 -215.949 -210.825 -215.205 -215.949 -220.342 -215.205 -219.659 -210.825 -215.205 -209.93 -214.387 -215.205 -219.659 -214.387 -218.911 -220.342 -224.804 -219.659 -224.18 -224.804 -229.331 -224.18 -228.759 -219.659 -224.18 -218.911 -223.496 -224.18 -228.759 -223.496 -228.135 -209.93 -214.387 -208.958 -213.501 -214.387 -218.911 -213.501 -218.103 -208.958 -213.501 -207.923 -212.556 -213.501 -218.103 -212.556 -217.241 -218.911 -223.496 -218.103 -222.759 -223.496 -228.135 -222.759 -227.462 -218.103 -222.759 -217.241 -221.973 -222.759 -227.462 -221.973 -226.747 -207.923 -212.556 -206.829 -211.558 -212.556 -217.241 -211.558 -216.332 -206.829 -211.558 -205.684 -210.516 -211.558 -216.332 -210.516 -215.384 -217.241 -221.973 -216.332 -221.145 -221.973 -226.747 -221.145 -225.995 -216.332 -221.145 -215.384 -220.282 -221.145 -225.995 -220.282 -225.21 -205.684 -210.516 -204.5 -209.439 -210.516 -215.384 -209.439 -214.406 -204.5 -209.439 -203.278 -208.34 -209.439 -214.406 -208.34 -213.401 -215.384 -220.282 -214.406 -219.393 -220.282 -225.21 -219.393 -224.395 -214.406 -219.393 -213.401 -218.49 -219.393 -224.395 -218.49 -223.579 -155 -159.472 -151.695 -156.475 -159.472 -164.078 -156.475 -161.355 -151.695 -156.475 -148.261 -153.376 -156.475 -161.355 -153.376 -158.558 -148.261 -153.376 -144.735 -150.214 -153.376 -158.558 -150.214 -155.718 -144.735 -150.214 -141.167 -147.028 -150.214 -155.718 -147.028 -152.869 -173.561 -178.408 -171.326 -176.383 -178.408 -183.31 -176.383 -181.475 -171.326 -176.383 -169.043 -174.328 -176.383 -181.475 -174.328 -179.612 -158.558 -163.787 -155.718 -161.234 -163.787 -169.043 -161.234 -166.753 -155.718 -161.234 -152.869 -158.681 -161.234 -166.753 -158.681 -164.462 -141.167 -147.028 -137.609 -143.863 -147.028 -152.869 -143.863 -150.047 -137.609 -143.863 -134.117 -140.77 -143.863 -150.047 -140.77 -147.294 -160.012 -166.221 -157.922 -164.357 -166.221 -172.337 -164.357 -170.67 -157.922 -164.357 -155.966 -162.614 -164.357 -170.67 -162.614 -169.109 -172.337 -178.37 -170.67 -176.876 -