# vtk DataFile Version 3.0
#This file was generated by the deal.II library on 2016/5/13 at 16:44:26
ASCII
DATASET UNSTRUCTURED_GRID

POINTS 52508 double
187500 -87500 0
200000 -87500 0
187500 -75000 0
200000 -75000 0
187500 -62500 0
200000 -62500 0
187500 -50000 0
200000 -50000 0
175000 -50000 0
187500 -50000 0
175000 -37500 0
187500 -37500 0
187500 -50000 0
200000 -50000 0
187500 -37500 0
200000 -37500 0
131250 -81250 0
137500 -81250 0
131250 -75000 0
137500 -75000 0
137500 -81250 0
143750 -81250 0
137500 -75000 0
143750 -75000 0
168750 -12500 0
175000 -12500 0
168750 -6250 0
175000 -6250 0
137500 -68750 0
143750 -68750 0
137500 -62500 0
143750 -62500 0
131250 -56250 0
137500 -56250 0
131250 -50000 0
137500 -50000 0
137500 -62500 0
143750 -62500 0
137500 -56250 0
143750 -56250 0
175000 -100000 0
181250 -100000 0
175000 -93750 0
181250 -93750 0
181250 -93750 0
187500 -93750 0
181250 -87500 0
187500 -87500 0
193750 -100000 0
200000 -100000 0
193750 -93750 0
200000 -93750 0
187500 -93750 0
193750 -93750 0
187500 -87500 0
193750 -87500 0
193750 -93750 0
200000 -93750 0
193750 -87500 0
200000 -87500 0
181250 -87500 0
187500 -87500 0
181250 -81250 0
187500 -81250 0
175000 -81250 0
181250 -81250 0
175000 -75000 0
181250 -75000 0
181250 -81250 0
187500 -81250 0
181250 -75000 0
187500 -75000 0
162500 -25000 0
168750 -25000 0
162500 -18750 0
168750 -18750 0
168750 -25000 0
175000 -25000 0
168750 -18750 0
175000 -18750 0
162500 -18750 0
168750 -18750 0
162500 -12500 0
168750 -12500 0
168750 -18750 0
175000 -18750 0
168750 -12500 0
175000 -12500 0
175000 -75000 0
181250 -75000 0
175000 -68750 0
181250 -68750 0
181250 -75000 0
187500 -75000 0
181250 -68750 0
187500 -68750 0
175000 -68750 0
181250 -68750 0
175000 -62500 0
181250 -62500 0
181250 -68750 0
187500 -68750 0
181250 -62500 0
187500 -62500 0
156250 -37500 0
162500 -37500 0
156250 -31250 0
162500 -31250 0
162500 -37500 0
168750 -37500 0
162500 -31250 0
168750 -31250 0
168750 -37500 0
175000 -37500 0
168750 -31250 0
175000 -31250 0
162500 -31250 0
168750 -31250 0
162500 -25000 0
168750 -25000 0
175000 -37500 0
181250 -37500 0
175000 -31250 0
181250 -31250 0
181250 -37500 0
187500 -37500 0
181250 -31250 0
187500 -31250 0
175000 -31250 0
181250 -31250 0
175000 -25000 0
181250 -25000 0
181250 -31250 0
187500 -31250 0
181250 -25000 0
187500 -25000 0
187500 -25000 0
193750 -25000 0
187500 -18750 0
193750 -18750 0
150000 -62500 0
156250 -62500 0
150000 -56250 0
156250 -56250 0
156250 -62500 0
162500 -62500 0
156250 -56250 0
162500 -56250 0
150000 -56250 0
156250 -56250 0
150000 -50000 0
156250 -50000 0
156250 -56250 0
162500 -56250 0
156250 -50000 0
162500 -50000 0
162500 -62500 0
168750 -62500 0
162500 -56250 0
168750 -56250 0
168750 -62500 0
175000 -62500 0
168750 -56250 0
175000 -56250 0
162500 -56250 0
168750 -56250 0
162500 -50000 0
168750 -50000 0
168750 -56250 0
175000 -56250 0
168750 -50000 0
175000 -50000 0
187500 -75000 0
193750 -75000 0
187500 -68750 0
193750 -68750 0
193750 -75000 0
200000 -75000 0
193750 -68750 0
200000 -68750 0
187500 -68750 0
193750 -68750 0
187500 -62500 0
193750 -62500 0
193750 -68750 0
200000 -68750 0
193750 -62500 0
200000 -62500 0
175000 -62500 0
181250 -62500 0
175000 -56250 0
181250 -56250 0
181250 -62500 0
187500 -62500 0
181250 -56250 0
187500 -56250 0
175000 -56250 0
181250 -56250 0
175000 -50000 0
181250 -50000 0
181250 -56250 0
187500 -56250 0
181250 -50000 0
187500 -50000 0
150000 -50000 0
156250 -50000 0
150000 -43750 0
156250 -43750 0
156250 -50000 0
162500 -50000 0
156250 -43750 0
162500 -43750 0
150000 -43750 0
156250 -43750 0
150000 -37500 0
156250 -37500 0
156250 -43750 0
162500 -43750 0
156250 -37500 0
162500 -37500 0
162500 -50000 0
168750 -50000 0
162500 -43750 0
168750 -43750 0
168750 -50000 0
175000 -50000 0
168750 -43750 0
175000 -43750 0
162500 -43750 0
168750 -43750 0
162500 -37500 0
168750 -37500 0
168750 -43750 0
175000 -43750 0
168750 -37500 0
175000 -37500 0
187500 -37500 0
193750 -37500 0
187500 -31250 0
193750 -31250 0
193750 -37500 0
200000 -37500 0
193750 -31250 0
200000 -31250 0
187500 -31250 0
193750 -31250 0
187500 -25000 0
193750 -25000 0
193750 -31250 0
200000 -31250 0
193750 -25000 0
200000 -25000 0
0 -100000 0
3125 -100000 0
0 -96875 0
3125 -96875 0
0 -93750 0
3125 -93750 0
0 -90625 0
3125 -90625 0
12500 -100000 0
15625 -100000 0
12500 -96875 0
15625 -96875 0
15625 -100000 0
18750 -100000 0
15625 -96875 0
18750 -96875 0
15625 -93750 0
18750 -93750 0
15625 -90625 0
18750 -90625 0
40625 -78125 0
43750 -78125 0
40625 -75000 0
43750 -75000 0
43750 -78125 0
46875 -78125 0
43750 -75000 0
46875 -75000 0
40625 -75000 0
43750 -75000 0
40625 -71875 0
43750 -71875 0
43750 -75000 0
46875 -75000 0
43750 -71875 0
46875 -71875 0
40625 -65625 0
43750 -65625 0
40625 -62500 0
43750 -62500 0
43750 -65625 0
46875 -65625 0
43750 -62500 0
46875 -62500 0
53125 -100000 0
56250 -100000 0
53125 -96875 0
56250 -96875 0
81250 -100000 0
84375 -100000 0
81250 -96875 0
84375 -96875 0
81250 -84375 0
84375 -84375 0
81250 -81250 0
84375 -81250 0
84375 -84375 0
87500 -84375 0
84375 -81250 0
87500 -81250 0
78125 -81250 0
81250 -81250 0
78125 -78125 0
81250 -78125 0
81250 -81250 0
84375 -81250 0
81250 -78125 0
84375 -78125 0
106250 -81250 0
109375 -81250 0
106250 -78125 0
109375 -78125 0
131250 -100000 0
134375 -100000 0
131250 -96875 0
134375 -96875 0
131250 -96875 0
134375 -96875 0
131250 -93750 0
134375 -93750 0
140625 -100000 0
143750 -100000 0
140625 -96875 0
143750 -96875 0
140625 -96875 0
143750 -96875 0
140625 -93750 0
143750 -93750 0
143750 -100000 0
146875 -100000 0
143750 -96875 0
146875 -96875 0
143750 -96875 0
146875 -96875 0
143750 -93750 0
146875 -93750 0
140625 -93750 0
143750 -93750 0
140625 -90625 0
143750 -90625 0
140625 -90625 0
143750 -90625 0
140625 -87500 0
143750 -87500 0
143750 -93750 0
146875 -93750 0
143750 -90625 0
146875 -90625 0
143750 -90625 0
146875 -90625 0
143750 -87500 0
146875 -87500 0
146875 -90625 0
150000 -90625 0
146875 -87500 0
150000 -87500 0
134375 -87500 0
137500 -87500 0
134375 -84375 0
137500 -84375 0
131250 -84375 0
134375 -84375 0
131250 -81250 0
134375 -81250 0
134375 -84375 0
137500 -84375 0
134375 -81250 0
137500 -81250 0
128125 -81250 0
131250 -81250 0
128125 -78125 0
131250 -78125 0
128125 -78125 0
131250 -78125 0
128125 -75000 0
131250 -75000 0
93750 -56250 0
96875 -56250 0
93750 -53125 0
96875 -53125 0
96875 -56250 0
100000 -56250 0
96875 -53125 0
100000 -53125 0
93750 -53125 0
96875 -53125 0
93750 -50000 0
96875 -50000 0
96875 -53125 0
100000 -53125 0
96875 -50000 0
100000 -50000 0
137500 -87500 0
140625 -87500 0
137500 -84375 0
140625 -84375 0
140625 -87500 0
143750 -87500 0
140625 -84375 0
143750 -84375 0
137500 -84375 0
140625 -84375 0
137500 -81250 0
140625 -81250 0
140625 -84375 0
143750 -84375 0
140625 -81250 0
143750 -81250 0
143750 -87500 0
146875 -87500 0
143750 -84375 0
146875 -84375 0
146875 -87500 0
150000 -87500 0
146875 -84375 0
150000 -84375 0
143750 -84375 0
146875 -84375 0
143750 -81250 0
146875 -81250 0
68750 -50000 0
71875 -50000 0
68750 -46875 0
71875 -46875 0
71875 -50000 0
75000 -50000 0
71875 -46875 0
75000 -46875 0
68750 -46875 0
71875 -46875 0
68750 -43750 0
71875 -43750 0
71875 -46875 0
75000 -46875 0
71875 -43750 0
75000 -43750 0
143750 -81250 0
146875 -81250 0
143750 -78125 0
146875 -78125 0
143750 -78125 0
146875 -78125 0
143750 -75000 0
146875 -75000 0
121875 -75000 0
125000 -75000 0
121875 -71875 0
125000 -71875 0
109375 -59375 0
112500 -59375 0
109375 -56250 0
112500 -56250 0
112500 -59375 0
115625 -59375 0
112500 -56250 0
115625 -56250 0
115625 -59375 0
118750 -59375 0
115625 -56250 0
118750 -56250 0
118750 -59375 0
121875 -59375 0
118750 -56250 0
121875 -56250 0
121875 -59375 0
125000 -59375 0
121875 -56250 0
125000 -56250 0
140625 -6250 0
143750 -6250 0
140625 -3125 0
143750 -3125 0
140625 -3125 0
143750 -3125 0
140625 0 0
143750 0 0
143750 -6250 0
146875 -6250 0
143750 -3125 0
146875 -3125 0
143750 -3125 0
146875 -3125 0
143750 0 0
146875 0 0
75000 -50000 0
78125 -50000 0
75000 -46875 0
78125 -46875 0
78125 -50000 0
81250 -50000 0
78125 -46875 0
81250 -46875 0
75000 -46875 0
78125 -46875 0
75000 -43750 0
78125 -43750 0
78125 -46875 0
81250 -46875 0
78125 -43750 0
81250 -43750 0
81250 -50000 0
84375 -50000 0
81250 -46875 0
84375 -46875 0
84375 -50000 0
87500 -50000 0
84375 -46875 0
87500 -46875 0
81250 -46875 0
84375 -46875 0
81250 -43750 0
84375 -43750 0
84375 -46875 0
87500 -46875 0
84375 -43750 0
87500 -43750 0
81250 -43750 0
84375 -43750 0
81250 -40625 0
84375 -40625 0
84375 -43750 0
87500 -43750 0
84375 -40625 0
87500 -40625 0
81250 -40625 0
84375 -40625 0
81250 -37500 0
84375 -37500 0
84375 -40625 0
87500 -40625 0
84375 -37500 0
87500 -37500 0
112500 -100000 0
115625 -100000 0
112500 -96875 0
115625 -96875 0
115625 -100000 0
118750 -100000 0
115625 -96875 0
118750 -96875 0
112500 -96875 0
115625 -96875 0
112500 -93750 0
115625 -93750 0
115625 -96875 0
118750 -96875 0
115625 -93750 0
118750 -93750 0
112500 -93750 0
115625 -93750 0
112500 -90625 0
115625 -90625 0
115625 -93750 0
118750 -93750 0
115625 -90625 0
118750 -90625 0
112500 -90625 0
115625 -90625 0
112500 -87500 0
115625 -87500 0
115625 -90625 0
118750 -90625 0
115625 -87500 0
118750 -87500 0
118750 -93750 0
121875 -93750 0
118750 -90625 0
121875 -90625 0
121875 -93750 0
125000 -93750 0
121875 -90625 0
125000 -90625 0
118750 -90625 0
121875 -90625 0
118750 -87500 0
121875 -87500 0
121875 -90625 0
125000 -90625 0
121875 -87500 0
125000 -87500 0
112500 -87500 0
115625 -87500 0
112500 -84375 0
115625 -84375 0
115625 -87500 0
118750 -87500 0
115625 -84375 0
118750 -84375 0
112500 -84375 0
115625 -84375 0
112500 -81250 0
115625 -81250 0
115625 -84375 0
118750 -84375 0
115625 -81250 0
118750 -81250 0
112500 -81250 0
115625 -81250 0
112500 -78125 0
115625 -78125 0
115625 -81250 0
118750 -81250 0
115625 -78125 0
118750 -78125 0
112500 -78125 0
115625 -78125 0
112500 -75000 0
115625 -75000 0
115625 -78125 0
118750 -78125 0
115625 -75000 0
118750 -75000 0
118750 -81250 0
121875 -81250 0
[...]
POINT_DATA 52508
SCALARS velocity double 1
LOOKUP_TABLE default
-34.6995 -34.5503 -34.8242 -34.8153 -34.4783 -34.2359 -34.4794 -34.4699 -34.5924 -34.4794 -34.3613 -34.4257 -34.4794 -34.4699 -34.4257 -34.6109 -35.4645 -35.7575 -35.8035 -35.7686 -35.7575 -36.0189 -35.7686 -35.9224 -33.385 -33.5247 -33.0017 -32.8655 -35.6034 -35.6436 -35.6169 -35.635 -35.8148 -35.8147 -36.1965 -36.1328 -35.6169 -35.635 -35.8147 -35.7164 -34.8172 -34.6499 -34.8743 -34.684 -34.684 -34.5216 -34.7625 -34.6995 -34.0535 -33.8079 -34.3168 -34.193 -34.5216 -34.3168 -34.6995 -34.6249 -34.3168 -34.193 -34.6249 -34.5503 -34.7625 -34.6995 -34.8163 -34.7618 -34.8368 -34.8163 -34.7191 -34.7467 -34.8163 -34.7618 -34.7467 -34.8242 -33.9751 -34.079 -33.6025 -33.748 -34.079 -34.2051 -33.748 -33.9459 -33.6025 -33.748 -33.3143 -33.385 -33.748 -33.9459 -33.385 -33.5247 -34.7191 -34.7467 -34.8988 -34.722 -34.7467 -34.8242 -34.722 -34.6303 -34.8988 -34.722 -34.7638 -34.7262 -34.722 -34.6303 -34.7262 -34.4783 -34.5874 -34.4284 -34.3372 -34.2322 -34.4284 -34.3401 -34.2322 -34.3409 -34.3401 -34.3613 -34.3409 -34.3095 -34.2322 -34.3409 -33.9751 -34.079 -34.3613 -34.3935 -34.3095 -34.3734 -34.3935 -34.4257 -34.3734 -34.4362 -34.3095 -34.3734 -34.2051 -34.3361 -34.3734 -34.4362 -34.3361 -34.348 -34.348 -34.5343 -34.2075 -34.416 -35.4916 -35.3336 -35.4433 -35.0576 -35.3336 -35.2975 -35.0576 -34.9295 -35.4433 -35.0576 -35.2099 -34.9448 -35.0576 -34.9295 -34.9448 -34.7628 -35.2975 -34.9283 -34.9295 -34.7947 -34.9283 -34.7638 -34.7947 -34.6778 -34.9295 -34.7947 -34.7628 -34.6686 -34.7947 -34.6778 -34.6686 -34.5924 -34.8242 -34.8197 -34.6303 -34.4957 -34.8197 -34.8153 -34.4957 -34.4724 -34.6303 -34.4957 -34.4783 -34.3571 -34.4957 -34.4724 -34.3571 -34.2359 -34.7638 -34.7262 -34.6778 -34.5776 -34.7262 -34.4783 -34.5776 -34.4788 -34.6778 -34.5776 -34.5924 -34.5359 -34.5776 -34.4788 -34.5359 -34.4794 -35.2099 -34.9448 -35.1254 -34.8289 -34.9448 -34.7628 -34.8289 -34.6381 -35.1254 -34.8289 -35.1233 -34.5874 -34.8289 -34.6381 -34.5874 -34.4284 -34.7628 -34.6686 -34.6381 -34.5628 -34.6686 -34.5924 -34.5628 -34.4769 -34.6381 -34.5628 -34.4284 -34.3401 -34.5628 -34.4769 -34.3401 -34.3613 -34.4257 -34.5183 -34.4362 -34.5427 -34.5183 -34.6109 -34.5427 -34.6472 -34.4362 -34.5427 -34.348 -34.5343 -34.5427 -34.6472 -34.5343 -34.6955 -41.1512 -39.1827 -41.2866 -39.2128 -41.3367 -39.344 -41.5566 -40.1456 -36.0238 -34.4831 -36.0994 -34.7038 -34.4831 -32.822 -34.7038 -33.0688 -34.9156 -33.4133 -35.093 -33.5191 -25.6885 -26.1111 -26.4572 -26.9758 -26.1111 -26.4021 -26.9758 -27.4121 -26.4572 -26.9758 -27.5104 -28.0597 -26.9758 -27.4121 -28.0597 -28.233 -28.6775 -29.2621 -29.2653 -29.79 -29.2621 -29.9322 -29.79 -30.322 -19.9836 -21.0318 -21.0667 -22.0196 -26.061 -27.2987 -27.4698 -28.6007 -31.9159 -32.7467 -32.4886 -33.2744 -32.7467 -33.7542 -33.2744 -34.462 -31.0361 -32.4886 -31.5138 -32.7115 -32.4886 -33.2744 -32.7115 -33.8585 -38.5771 -38.5061 -38.7012 -38.6311 -37.1941 -37.4379 -37.0327 -37.3774 -37.0327 -37.3774 -37.0565 -37.3243 -36.9803 -36.6151 -36.6547 -36.6286 -36.6547 -36.6286 -36.4078 -36.3838 -36.6151 -36.8744 -36.6286 -36.6649 -36.6286 -36.6649 -36.3838 -36.5062 -36.4078 -36.3838 -36.0764 -36.1595 -36.0764 -36.1595 -35.7016 -36.0492 -36.3838 -36.5062 -36.1595 -36.0643 -36.1595 -36.0643 -36.0492 -36.105 -36.0643 -35.7403 -36.105 -36.0697 -35.9669 -35.6524 -35.5367 -35.752 -35.6155 -35.5367 -35.4645 -35.611 -35.5367 -35.752 -35.611 -35.7575 -35.5599 -35.4645 -35.63 -35.634 -35.63 -35.634 -35.7469 -35.8035 -38.8376 -38.6556 -38.4035 -38.3503 -38.6556 -38.3096 -38.3503 -38.316 -38.4035 -38.3503 -38.239 -38.0718 -38.3503 -38.316 -38.0718 -37.9603 -35.6524 -35.7016 -35.752 -35.842 -35.7016 -36.0492 -35.842 -36.0365 -35.752 -35.842 -35.7575 -35.8882 -35.842 -36.0365 -35.8882 -36.0189 -36.0492 -36.105 -36.0365 -36.4164 -36.105 -36.0697 -36.4164 -36.3799 -36.0365 -36.4164 -36.0189 -36.3238 -36.2959 -36.877 -35.697 -36.3154 -36.877 -37.4485 -36.3154 -36.9088 -35.697 -36.3154 -35.1351 -35.8018 -36.3154 -36.9088 -35.8018 -36.3588 -36.0189 -36.3238 -35.9706 -36.1986 -35.9706 -36.1986 -35.9224 -35.837 -36.9276 -36.2131 -36.8969 -36.4787 -36.8827 -36.3949 -36.5376 -36.5555 -36.3949 -36.0368 -36.5555 -36.3324 -36.0368 -35.7617 -36.3324 -36.1133 -35.7617 -35.5697 -36.1133 -35.9215 -35.5697 -35.6259 -35.9215 -35.7407 -30.6417 -30.5764 -30.2768 -30.4697 -30.2768 -30.4697 -29.6476 -30.4889 -30.5764 -31.1306 -30.4697 -30.713 -30.4697 -30.713 -30.4889 -30.2517 -37.4485 -37.8149 -36.9088 -37.1372 -37.8149 -38.1568 -37.1372 -37.3937 -36.9088 -37.1372 -36.3588 -36.524 -37.1372 -37.3937 -36.524 -36.4916 -38.1568 -38.4294 -37.3937 -37.7625 -38.4294 -38.7816 -37.7625 -38.2682 -37.3937 -37.7625 -36.4916 -36.9059 -37.7625 -38.2682 -36.9059 -37.6526 -36.4916 -36.9059 -35.7006 -36.4214 -36.9059 -37.6526 -36.4214 -37.074 -35.7006 -36.4214 -35.1341 -35.9296 -36.4214 -37.074 -35.9296 -36.4184 -36.7355 -37.2135 -36.8526 -37.3843 -37.2135 -38.1679 -37.3843 -37.9831 -36.8526 -37.3843 -37.0893 -37.4279 -37.3843 -37.9831 -37.4279 -37.6183 -37.0893 -37.4279 -37.7192 -37.737 -37.4279 -37.6183 -37.737 -37.7244 -37.7192 -37.737 -38.2929 -38.0493 -37.737 -37.7244 -38.0493 -37.9867 -37.6183 -37.015 -37.7244 -37.2932 -37.015 -36.6336 -37.2932 -36.8864 -37.7244 -37.2932 -37.9867 -37.5141 -37.2932 -36.8864 -37.5141 -36.9648 -38.2929 -38.0493 -38.3049 -38.1347 -38.0493 -37.9867 -38.1347 -37.9857 -38.3049 -38.1347 -38.3748 -38.1988 -38.1347 -37.9857 -38.1988 -37.8846 -38.3748 -38.1988 -38.4062 -38.08 -38.1988 -37.8846 -38.08 -37.7518 -38.4062 -38.08 -38.303 -38.1286 -38.08 -37.7518 -38.1286 -37.5925 -37.8846 -36.7612 -37.7518 -36.9842 -36.7612 -35.9691 -36.9842 -36.1006 -37.7518 -36.9842 -37.5925 -36.9276 -36.9842 -36.1006 -36.9276 -36.2131 -39.4757 -38.814 -39.4526 -39.0001 -38.814 -38.4215 -39.0001 -38.5577 -39.4526 -39.0001 -39.4469 -39.1188 -39.0001 -38.5577 -39.1188 -38.7024 -38.4215 -38.1863 -38.5577 -38.284 -38.1863 -38.303 -38.284 -37.9721 -38.5577 -38.284 -38.7024 -38.4032 -38.284 -37.9721 -38.4032 -37.9351 -37.305 -36.4274 -37.7707 -36.6831 -36.4274 -36.0048 -36.6831 -35.7038 -37.7707 -36.6831 -38.3192 -36.9634 -36.6831 -35.7038 -36.9634 -35.5406 -37.6172 -37.3134 -37.8258 -37.4742 -37.3134 -37.3663 -37.4742 -37.1745 -37.8258 -37.4742 -38.1095 -37.7441 -37.4742 -37.1745 -37.7441 -36.8095 -36.8095 -36.3928 -37.349 -37.1616 -36.3928 -36.5295 -37.1616 -36.9506 -37.349 -37.1616 -38.138 -37.9729 -37.1616 -36.9506 -37.9729 -37.305 -38.7816 -38.5261 -38.2682 -38.1553 -38.5261 -38.239 -38.1553 -38.2203 -38.2682 -38.1553 -37.6526 -37.9862 -38.1553 -38.2203 -37.9862 -38.0852 -38.239 -38.0718 -38.2203 -38.031 -38.0718 -37.9603 -38.031 -37.7459 -38.2203 -38.031 -38.0852 -37.8975 -38.031 -37.7459 -37.8975 -37.7985 -38.3096 -37.5042 -38.316 -37.6254 -37.5042 -36.8773 -37.6254 -37.1165 -38.316 -37.6254 -37.9603 -37.603 -37.6254 -37.1165 -37.603 -37.2406 -36.8773 -36.5376 -37.1165 -36.8033 -36.5376 -36.5555 -36.8033 -36.5353 -37.1165 -36.8033 -37.2406 -36.9042 -36.8033 -36.5353 -36.9042 -36.6132 -36.5555 -36.3324 -36.5353 -36.3879 -36.3324 -36.1133 -36.3879 -36.1406 -36.5353 -36.3879 -36.6132 -36.3705 -36.3879 -36.1406 -36.3705 -36.1026 -36.1133 -35.9215 -36.1406 -35.8986 -35.9215 -35.7407 -35.8986 -35.7049 -36.1406 -35.8986 -36.1026 -35.9416 -35.8986 -35.7049 -35.9416 -35.9273 -36.4533 -35.674 -36.0817 -35.4182 -35.674 -35.0709 -35.4182 -34.9206 -36.0817 -35.4182 -35.9077 -35.3191 -35.4182 -34.9206 -35.3191 -34.7714 -35.0709 -34.5253 -34.9206 -34.4999 -34.5253 -34.2011 -34.4999 -34.129 -34.9206 -34.4999 -34.7714 -34.4166 -34.4999 -34.129 -34.4166 -34.1329 -35.9077 -35.3191 -35.7403 -35.4651 -35.3191 -34.7714 -35.4651 -34.9154 -35.7403 -35.4651 -36.0697 -35.6303 -35.4651 -34.9154 -35.6303 -35.4649 -34.7714 -34.4166 -34.9154 -34.722 -34.4166 -34.1329 -34.722 -34.4429 -34.9154 -34.722 -35.4649 -35.2056 -34.722 -34.4429 -35.2056 -34.8336 -36.0697 -35.6303 -36.3799 -35.8544 -35.6303 -35.4649 -35.8544 -35.5215 -36.3799 -35.8544 -36.2695 -35.9969 -35.8544 -35.5215 -35.9969 -35.5026 -35.4649 -35.2056 -35.5215 -35.1424 -35.2056 -34.8336 -35.1424 -34.678 -35.5215 -35.1424 -35.5026 -35.1283 -35.1424 -34.678 -35.1283 -34.6339 -36.2695 -35.9969 -35.9563 -35.732 -35.9969 -35.5026 -35.732 -35.5693 -35.9563 -35.732 -35.685 -35.697 -35.732 -35.5693 -35.697 -35.5871 -35.5026 -35.1283 -35.5693 -35.3267 -35.1283 -34.6339 -35.3267 -34.752 -35.5693 -35.3267 -35.5871 -35.3234 -35.3267 -34.752 -35.3234 -35.0185 -37.9603 -37.603 -37.7459 -37.5611 -37.603 -37.2406 -37.5611 -37.3317 -37.7459 -37.5611 -37.7985 -37.714 -37.5611 -37.3317 -37.714 -37.5475 -37.2406 -36.9042 -37.3317 -37.0916 -36.9042 -36.6132 -37.0916 -36.8365 -37.3317 -37.0916 -37.5475 -37.3761 -37.0916 -36.8365 -37.3761 -37.0685 -33.5676 -33.9461 -33.1394 -33.5749 -33.9461 -33.9581 -33.5749 -33.6594 -33.1394 -33.5749 -33.2807 -33.5522 -33.5749 -33.6594 -33.5522 -33.5164 -36.9467 -36.4488 -37.0732 -36.7096 -36.4488 -36.1575 -36.7096 -36.5395 -37.0732 -36.7096 -37.2298 -37.1786 -36.7096 -36.5395 -37.1786 -37.1166 -36.1575 -35.9728 -36.5395 -36.4883 -35.9728 -35.7831 -36.4883 -36.0457 -36.5395 -36.4883 -37.1166 -37.47 -36.4883 -36.0457 -37.47 -36.3954 -35.7831 -35.5367 -36.0457 -35.4463 -35.5367 -35.1233 -35.4463 -34.945 -36.0457 -35.4463 -36.3954 -35.1011 -35.4463 -34.945 -35.1011 -34.6546 -36.3954 -35.1011 -35.3095 -34.5751 -35.1011 -34.6546 -34.5751 -34.2824 -35.3095 -34.5751 -33.5676 -33.9461 -34.5751 -34.2824 -33.9461 -33.9581 -33.9581 -33.8739 -33.6594 -33.7728 -33.8739 -33.8716 -33.7728 -33.816 -33.6594 -33.7728 -33.5164 -33.6654 -33.7728 -33.816 -33.6654 -33.7301 -33.8716 -33.9171 -33.816 -33.8467 -33.9171 -33.9751 -33.8467 -33.7888 -33.816 -33.8467 -33.7301 -33.6053 -33.8467 -33.7888 -33.6053 -33.6025 -33.5164 -33.6654 -33.0054 -33.1825 -33.6654 -33.7301 -33.1825 -33.2818 -33.0054 -33.1825 -32.8261 -32.818 -33.1825 -33.2818 -32.818 -32.9999 -33.7301 -33.6053 -33.2818 -33.3617 -33.6053 -33.6025 -33.3617 -33.4584 -33.2818 -33.3617 -32.9999 -33.0855 -33.3617 -33.4584 -33.0855 -33.3143 -34.2011 -34.4444 -34.129 -34.3928 -34.4444 -34.5574 -34.3928 -34.6081 -34.129 -34.3928 -34.1329 -34.4524 -34.3928 -34.6081 -34.4524 -34.7358 -34.5574 -34.6392 -34.6081 -34.8565 -34.6392 -34.8172 -34.8565 -34.8457 -34.6081 -34.8565 -34.7358 -34.8425 -34.8565 -34.8457 -34.8425 -34.8743 -34.1329 -34.4524 -34.4429 -34.2614 -34.4524 -34.7358 -34.2614 -34.6411 -34.4429 -34.2614 -34.8336 -34.8097 -34.2614 -34.6411 -34.8097 -34.6547 -34.7358 -34.8425 -34.6411 -34.7758 -34.8425 -34.8743 -34.7758 -34.8421 -34.6411 -34.7758 -34.6547 -34.8291 -34.7758 -34.8421 -34.8291 -35.0775 -32.8261 -32.818 -32.2808 -32.4746 -32.818 -32.9999 -32.4746 -32.7119 -32.2808 -32.4746 -31.6036 -32.0454 -32.4746 -32.7119 -32.0454 -32.462 -32.9999 -33.0855 -32.7119 -32.9661 -33.0855 -33.3143 -32.9661 -33.1747 -32.7119 -32.9661 -32.462 -32.854 -32.9661 -33.1747 -32.854 -33.1195 -31.6036 -32.0454 -31.0771 -31.6206 -32.0454 -32.462 -31.6206 -32.1173 -31.0771 -31.6206 -30.4045 -31.3749 -31.6206 -32.1173 -31.3749 -31.9786 -32.462 -32.854 -32.1173 -32.6376 -32.854 -33.1195 -32.6376 -33.0179 -32.1173 -32.6376 -31.9786 -32.5694 -32.6376 -33.0179 -32.5694 -32.9687 -34.8336 -34.8097 -34.678 -34.7564 -34.8097 -34.6547 -34.7564 -34.7542 -34.678 -34.7564 -34.6339 -34.7536 -34.7564 -34.7542 -34.7536 -34.9076 -34.6547 -34.8291 -34.7542 -34.8356 -34.8291 -35.0775 -34.8356 -35.0637 -34.7542 -34.8356 -34.9076 -34.841 -34.8356 -35.0637 -34.841 -34.8368 -34.6339 -34.7536 -34.752 -35.0201 -34.7536 -34.9076 -35.0201 -35.0627 -34.752 -35.0201 -35.0185 -35.1856 -35.0201 -35.0627 -35.1856 -35.0625 -34.9076 -34.841 -35.0627 -34.9268 -34.841 -34.8368 -34.9268 -34.7779 -35.0627 -34.9268 -35.0625 -34.9505 -34.9268 -34.7779 -34.9505 -34.7191 -36.6132 -36.3705 -36.8365 -36.63 -36.3705 -36.1026 -36.63 -36.441 -36.8365 -36.63 -37.0685 -36.8308 -36.63 -36.441 -36.8308 -36.6906 -36.1026 -35.9416 -36.441 -36.3203 -35.9416 -35.9273 -36.3203 -36.2241 -36.441 -36.3203 -36.6906 -36.564 -36.3203 -36.2241 -36.564 -36.4236 -37.0685 -36.8308 -37.1923 -36.9982 -36.8308 -36.6906 -36.9982 -36.8063 -37.1923 -36.9982 -37.2739 -37.1907 -36.9982 -36.8063 -37.1907 -36.9372 -36.6906 -36.564 -36.8063 -36.6693 -36.564 -36.4236 -36.6693 -36.8619 -36.8063 -36.6693 -36.9372 -36.8316 -36.6693 -36.8619 -36.8316 -37.1734 -34.8044 -33.381 -34.8655 -33.9517 -33.381 -32.8485 -33.9517 -33.2477 -34.8655 -33.9517 -34.7895 -34.1242 -33.9517 -33.2477 -34.1242 -33.547 -32.8485 -32.7888 -33.2477 -33.0762 -32.7888 -31.8606 -33.0762 -32.6951 -33.2477 -33.0762 -33.547 -33.3335 -33.0762 -32.6951 -33.3335 -33.2188 -34.7895 -34.1242 -33.883 -33.7888 -34.1242 -33.547 -33.7888 -33.574 -33.883 -33.7888 -32.9546 -33.4803 -33.7888 -33.574 -33.4803 -33.7301 -33.547 -33.3335 -33.574 -33.3931 -33.3335 -33.2188 -33.3931 -33.2571 -33.574 -33.3931 -33.7301 -33.4462 -33.3931 -33.2571 -33.4462 -33.0871 -35.9273 -36.1412 -36.2241 -36.2799 -36.1412 -36.1965 -36.2799 -36.2721 -36.2241 -36.2799 -36.4236 -36.4784 -36.2799 -36.2721 -36.4784 -36.4668 -36.1965 -36.1646 -36.2721 -36.2048 -36.1646 -36.1328 -36.2048 -36.0734 -36.2721 -36.2048 -36.4668 -36.3195 -36.2048 -36.0734 -36.3195 -36.0561 -36.4236 -36.4784 -36.8619 -36.8018 -36.4784 -36.4668 -36.8018 -36.6406 -36.8619 -36.8018 -37.1734 -37.2337 -36.8018 -36.6406 -37.2337 -36.9467 -36.4668 -36.3195 -36.6406 -36.3875 -36.3195 -36.0561 -36.3875 -36.1269 -36.6406 -36.3875 -36.9467 -36.4488 -36.3875 -36.1269 -36.4488 -36.1575 -36.1328 -36.0433 -36.0734 -35.9195 -36.0433 -35.8683 -35.9195 -35.6563 -36.0734 -35.9195 -36.0561 -35.7629 -35.9195 -35.6563 -35.7629 -35.6036 -35.8683 -35.5933 -35.6563 -35.4346 -35.5933 -35.2099 -35.4346 -35.1676 -35.6563 -35.4346 -35.6036 -35.4438 -35.4346 -35.1676 -35.4438 -35.1254 -36.0561 -35.7629 -36.1269 -35.8777 -35.7629 -35.6036 -35.8777 -35.6508 -36.1269 -35.8777 -36.1575 -35.9728 -35.8777 -35.6508 -35.9728 -35.7831 -35.6036 -35.4438 -35.6508 -35.4485 -35.4438 -35.1254 -35.4485 -35.1243 -35.6508 -35.4485 -35.7831 -35.5367 -35.4485 -35.1243 -35.5367 -35.1233 -33.3143 -33.3497 -33.1747 -33.1969 -33.3497 -33.385 -33.1969 -33.1934 -33.1747 -33.1969 -33.1195 -33.0788 -33.1969 -33.1934 -33.0788 -33.0017 -33.1195 -33.0788 -33.0179 -32.9993 -33.0788 -33.0017 -32.9993 -32.9241 -33.0179 -32.9993 -32.9687 -32.9923 -32.9993 -32.9241 -32.9923 -32.8804 -33.0017 -32.9336 -32.9241 -32.7788 -32.9336 -32.8655 -32.7788 -32.4503 -32.9241 -32.7788 -32.8804 -32.635 -32.7788 -32.4503 -32.635 -32.249 -36.2131 -35.7469 -36.4787 -36.033 -35.7469 -35.8035 -36.033 -35.843 -36.4787 -36.033 -36.2875 -36.0614 -36.033 -35.843 -36.0614 -35.8456 -35.8035 -35.7861 -35.843 -35.7675 -35.7861 -35.7686 -35.7675 -35.6568 -35.843 -35.7675 -35.8456 -35.6848 -35.7675 -35.6568 -35.6848 -35.6034 -36.2875 -36.0614 -36.056 -35.927 -36.0614 -35.8456 -35.927 -35.7291 -36.056 -35.927 -35.9699 -35.8114 -35.927 -35.7291 -35.8114 -35.6766 -35.8456 -35.6848 -35.7291 -35.6475 -35.6848 -35.6034 -35.6475 -35.6101 -35.7291 -35.6475 -35.6766 -35.6769 -35.6475 -35.6101 -35.6769 -35.6169 -35.7686 -35.8455 -35.6568 -35.7307 -35.8455 -35.9224 -35.7307 -35.7454 -35.6568 -35.7307 -35.6034 -35.6235 -35.7307 -35.7454 -35.6235 -35.6436 -35.9224 -35.837 -35.7454 -35.7187 -35.837 -35.685 -35.7187 -35.6967 -35.7454 -35.7187 -35.6436 -35.6354 -35.7187 -35.6967 -35.6354 -35.61 -35.6436 -35.6354 -35.6393 -35.6153 -35.6354 -35.61 -35.6153 -35.5799 -35.6393 -35.6153 -35.635 -35.5849 -35.6153 -35.5799 -35.5849 -35.4916 -35.9699 -35.8114 -35.6259 -35.7679 -35.8114 -35.6766 -35.7679 -35.7382 -35.6259 -35.7679 -35.7407 -35.7949 -35.7679 -35.7382 -35.7949 -35.8148 -35.6766 -35.6769 -35.7382 -35.7459 -35.6769 -35.6169 -35.7459 -35.7158 -35.7382 -35.7459 -35.8148 -35.8148 -35.7459 -35.7158 -35.8148 -35.8147 -35.7407 -35.7949 -35.7049 -35.9133 -35.7949 -35.8148 -35.9133 -36.0056 -35.7049 -35.9133 -35.9273 -36.1412 -35.9133 -36.0056 -36.1412 -36.1965 -35.635 -35.5849 -35.6757 -35.5735 -35.5849 -35.4916 -35.5735 -35.4675 -35.6757 -35.5735 -35.7164 -35.5846 -35.5735 -35.4675 -35.5846 -35.4433 -35.8147 -35.7655 -35.9738 -35.8855 -35.7655 -35.7164 -35.8855 -35.7622 -35.9738 -35.8855 -36.1328 -36.0433 -35.8855 -35.7622 -36.0433 -35.8683 -35.7164 -35.5846 -35.7622 -35.5716 -35.5846 -35.4433 -35.5716 -35.3266 -35.7622 -35.5716 -35.8683 -35.5933 -35.5716 -35.3266 -35.5933 -35.2099 -34.6499 -34.5571 -34.667 -34.5875 -34.5571 -34.5077 -34.5875 -34.5243 -34.667 -34.5875 -34.684 -34.6028 -34.5875 -34.5243 -34.6028 -34.5216 -34.8743 -34.7792 -34.8421 -34.8474 -34.7792 -34.684 -34.8474 -34.7233 -34.8421 -34.8474 -35.0775 -34.8883 -34.8474 -34.7233 -34.8883 -34.7625 -34.5077 -34.3218 -34.5243 -34.3479 -34.3218 -34.0535 -34.3479 -34.1851 -34.5243 -34.3479 -34.5216 -34.4192 -34.3479 -34.1851 -34.4192 -34.3168 -35.0775 -34.8883 -35.0637 -34.8943 -34.8883 -34.7625 -34.8943 -34.7894 -35.0637 -34.8943 -34.8368 -34.8265 -34.8943 -34.7894 -34.8265 -34.8163 -35.685 -35.697 -35.6967 -35.5881 -35.697 -35.5871 -35.5881 -35.5101 -35.6967 -35.5881 -35.61 -35.536 -35.5881 -35.5101 -35.536 -35.4134 -35.5871 -35.3234 -35.5101 -35.3525 -35.3234 -35.0185 -35.3525 -35.1758 -35.5101 -35.3525 -35.4134 -35.2402 -35.3525 -35.1758 -35.2402 -35.1716 -35.61 -35.536 -35.5799 -35.4608 -35.536 -35.4134 -35.4608 -35.3116 -35.5799 -35.4608 -35.4916 -35.4126 -35.4608 -35.3116 -35.4126 -35.3336 -35.4134 -35.2402 -35.3116 -35.2518 -35.2402 -35.1716 -35.2518 -35.2289 -35.3116 -35.2518 -35.3336 -35.3156 -35.2518 -35.2289 -35.3156 -35.2975 -35.0185 -35.1856 -35.1758 -35.122 -35.1856 -35.0625 -35.122 -35.0864 -35.1758 -35.122 -35.1716 -35.155 -35.122 -35.0864 -35.155 -35.1096 -35.0625 -34.9505 -35.0864 -34.9653 -34.9505 -34.7191 -34.9653 -34.8089 -35.0864 -34.9653 -35.1096 -35.0194 -34.9653 -34.8089 -35.0194 -34.8988 -35.1716 -35.155 -35.2289 -35.1427 -35.155 -35.1096 -35.1427 -35.0814 -35.2289 -35.1427 -35.2975 -35.1129 -35.1427 -35.0814 -35.1129 -34.9283 -35.1096 -35.0194 -35.0814 -34.9638 -35.0194 -34.8988 -34.9638 -34.8313 -35.0814 -34.9638 -34.9283 -34.846 -34.9638 -34.8313 -34.846 -34.7638 -35.1233 -34.8553 -34.945 -34.6864 -34.8553 -34.5874 -34.6864 -34.4623 -34.945 -34.6864 -34.6546 -34.4603 -34.6864 -34.4623 -34.4603 -34.3372 -34.6546 -34.4603 -34.2824 -34.1914 -34.4603 -34.3372 -34.1914 -34.127 -34.2824 -34.1914 -33.9581 -33.8739 -34.1914 -34.127 -33.8739 -33.8716 -34.3372 -34.2847 -34.127 -34.1201 -34.2847 -34.2322 -34.1201 -34.1036 -34.127 -34.1201 -33.8716 -33.9171 -34.1201 -34.1036 -33.9171 -33.9751 -34.3409 -34.3252 -34.21 -34.2282 -34.3252 -34.3095 -34.2282 -34.2573 -34.21 -34.2282 -34.079 -34.1421 -34.2282 -34.2573 -34.1421 -34.2051 -34.2051 -34.2706 -34.0755 -34.1237 -34.2706 -34.3361 -34.1237 -34.1371 -34.0755 -34.1237 -33.9459 -33.9499 -34.1237 -34.1371 -33.9499 -33.9753 -34.3361 -34.342 -34.1371 -34.2029 -34.342 -34.348 -34.2029 -34.2777 -34.1371 -34.2029 -33.9753 -34.0517 -34.2029 -34.2777 -34.0517 -34.2075 -33.9459 -33.9499 -33.7352 -33.7427 -33.9499 -33.9753 -33.7427 -33.749 -33.7352 -33.7427 -33.5247 -33.5626 -33.7427 -33.749 -33.5626 -33.5929 -33.9753 -34.0517 -33.749 -33.8527 -34.0517 -34.2075 -33.8527 -33.9009 -33.749 -33.8527 -33.5929 -33.7077 -33.8527 -33.9009 -33.7077 -33.6652 -34.5343 -34.6149 -34.4752 -34.5137 -34.6149 -34.6955 -34.5137 -34.4166 -34.4752 -34.5137 -34.416 -34.2154 -34.5137 -34.4166 -34.2154 -34.1248 -34.2075 -34.3117 -33.9009 -33.9852 -34.3117 -34.416 -33.9852 -34.0292 -33.9009 -33.9852 -33.6652 -33.6867 -33.9852 -34.0292 -33.6867 -33.787 -34.416 -34.2154 -34.0292 -34.0218 -34.2154 -34.1248 -34.0218 -34.0352 -34.0292 -34.0218 -33.787 -33.8187 -34.0218 -34.0352 -33.8187 -33.8564 -33.5247 -33.5626 -33.1951 -33.1593 -33.5626 -33.5929 -33.1593 -33.1172 -33.1951 -33.1593 -32.8655 -32.7609 -33.1593 -33.1172 -32.7609 -32.6434 -33.5929 -33.7077 -33.1172 -33.1154 -33.7077 -33.6652 -33.1154 -33.1105 -33.1172 -33.1154 -32.6434 -32.5683 -33.1154 -33.1105 -32.5683 -32.6056 -32.8655 -32.7609 -32.4503 -32.4023 -32.7609 -32.6434 -32.4023 -32.3873 -32.4503 -32.4023 -32.249 -32.1091 -32.4023 -32.3873 -32.1091 -32.1197 -32.6434 -32.5683 -32.3873 -32.2568 -32.5