# vtk DataFile Version 3.0
#This file was generated by the deal.II library on 2016/5/13 at 16:44:17
ASCII
DATASET UNSTRUCTURED_GRID

POINTS 18272 double
162500 -100000 0
175000 -100000 0
162500 -87500 0
175000 -87500 0
162500 -87500 0
175000 -87500 0
162500 -75000 0
175000 -75000 0
112500 -50000 0
125000 -50000 0
112500 -37500 0
125000 -37500 0
125000 -25000 0
137500 -25000 0
125000 -12500 0
137500 -12500 0
125000 -50000 0
137500 -50000 0
125000 -37500 0
137500 -37500 0
137500 -50000 0
150000 -50000 0
137500 -37500 0
150000 -37500 0
162500 -12500 0
175000 -12500 0
162500 0 0
175000 0 0
125000 -75000 0
137500 -75000 0
125000 -62500 0
137500 -62500 0
137500 -75000 0
150000 -75000 0
137500 -62500 0
150000 -62500 0
125000 -62500 0
137500 -62500 0
125000 -50000 0
137500 -50000 0
137500 -62500 0
150000 -62500 0
137500 -50000 0
150000 -50000 0
175000 -100000 0
187500 -100000 0
175000 -87500 0
187500 -87500 0
187500 -100000 0
200000 -100000 0
187500 -87500 0
200000 -87500 0
175000 -87500 0
187500 -87500 0
175000 -75000 0
187500 -75000 0
187500 -87500 0
200000 -87500 0
187500 -75000 0
200000 -75000 0
150000 -75000 0
162500 -75000 0
150000 -62500 0
162500 -62500 0
162500 -75000 0
175000 -75000 0
162500 -62500 0
175000 -62500 0
150000 -62500 0
162500 -62500 0
150000 -50000 0
162500 -50000 0
162500 -62500 0
175000 -62500 0
162500 -50000 0
175000 -50000 0
175000 -75000 0
187500 -75000 0
175000 -62500 0
187500 -62500 0
187500 -75000 0
200000 -75000 0
187500 -62500 0
200000 -62500 0
175000 -62500 0
187500 -62500 0
175000 -50000 0
187500 -50000 0
187500 -62500 0
200000 -62500 0
187500 -50000 0
200000 -50000 0
150000 -50000 0
162500 -50000 0
150000 -37500 0
162500 -37500 0
162500 -50000 0
175000 -50000 0
162500 -37500 0
175000 -37500 0
150000 -37500 0
162500 -37500 0
150000 -25000 0
162500 -25000 0
162500 -37500 0
175000 -37500 0
162500 -25000 0
175000 -25000 0
175000 -50000 0
187500 -50000 0
175000 -37500 0
187500 -37500 0
187500 -50000 0
200000 -50000 0
187500 -37500 0
200000 -37500 0
175000 -37500 0
187500 -37500 0
175000 -25000 0
187500 -25000 0
187500 -37500 0
200000 -37500 0
187500 -25000 0
200000 -25000 0
175000 -25000 0
187500 -25000 0
175000 -12500 0
187500 -12500 0
187500 -25000 0
200000 -25000 0
187500 -12500 0
200000 -12500 0
175000 -12500 0
187500 -12500 0
175000 0 0
187500 0 0
187500 -12500 0
200000 -12500 0
187500 0 0
200000 0 0
87500 -75000 0
93750 -75000 0
87500 -68750 0
93750 -68750 0
43750 -43750 0
50000 -43750 0
43750 -37500 0
50000 -37500 0
75000 -56250 0
81250 -56250 0
75000 -50000 0
81250 -50000 0
81250 -56250 0
87500 -56250 0
81250 -50000 0
87500 -50000 0
87500 -62500 0
93750 -62500 0
87500 -56250 0
93750 -56250 0
93750 -62500 0
100000 -62500 0
93750 -56250 0
100000 -56250 0
87500 -56250 0
93750 -56250 0
87500 -50000 0
93750 -50000 0
93750 -56250 0
100000 -56250 0
93750 -50000 0
100000 -50000 0
56250 -50000 0
62500 -50000 0
56250 -43750 0
62500 -43750 0
50000 -43750 0
56250 -43750 0
50000 -37500 0
56250 -37500 0
62500 -50000 0
68750 -50000 0
62500 -43750 0
68750 -43750 0
68750 -50000 0
75000 -50000 0
68750 -43750 0
75000 -43750 0
75000 -50000 0
81250 -50000 0
75000 -43750 0
81250 -43750 0
81250 -50000 0
87500 -50000 0
81250 -43750 0
87500 -43750 0
75000 -43750 0
81250 -43750 0
75000 -37500 0
81250 -37500 0
118750 -100000 0
125000 -100000 0
118750 -93750 0
125000 -93750 0
118750 -87500 0
125000 -87500 0
118750 -81250 0
125000 -81250 0
100000 -68750 0
106250 -68750 0
100000 -62500 0
106250 -62500 0
106250 -68750 0
112500 -68750 0
106250 -62500 0
112500 -62500 0
118750 -25000 0
125000 -25000 0
118750 -18750 0
125000 -18750 0
118750 -18750 0
125000 -18750 0
118750 -12500 0
125000 -12500 0
118750 -6250 0
125000 -6250 0
118750 0 0
125000 0 0
106250 -37500 0
112500 -37500 0
106250 -31250 0
112500 -31250 0
112500 -37500 0
118750 -37500 0
112500 -31250 0
118750 -31250 0
118750 -37500 0
125000 -37500 0
118750 -31250 0
125000 -31250 0
112500 -31250 0
118750 -31250 0
112500 -25000 0
118750 -25000 0
118750 -31250 0
125000 -31250 0
118750 -25000 0
125000 -25000 0
87500 -50000 0
93750 -50000 0
87500 -43750 0
93750 -43750 0
93750 -50000 0
100000 -50000 0
93750 -43750 0
100000 -43750 0
87500 -43750 0
93750 -43750 0
87500 -37500 0
93750 -37500 0
93750 -43750 0
100000 -43750 0
93750 -37500 0
100000 -37500 0
87500 -37500 0
93750 -37500 0
87500 -31250 0
93750 -31250 0
93750 -37500 0
100000 -37500 0
93750 -31250 0
100000 -31250 0
87500 -31250 0
93750 -31250 0
87500 -25000 0
93750 -25000 0
93750 -31250 0
100000 -31250 0
93750 -25000 0
100000 -25000 0
100000 -87500 0
106250 -87500 0
100000 -81250 0
106250 -81250 0
106250 -87500 0
112500 -87500 0
106250 -81250 0
112500 -81250 0
100000 -81250 0
106250 -81250 0
100000 -75000 0
106250 -75000 0
106250 -81250 0
112500 -81250 0
106250 -75000 0
112500 -75000 0
125000 -100000 0
131250 -100000 0
125000 -93750 0
131250 -93750 0
131250 -100000 0
137500 -100000 0
131250 -93750 0
137500 -93750 0
125000 -93750 0
131250 -93750 0
125000 -87500 0
131250 -87500 0
131250 -93750 0
137500 -93750 0
131250 -87500 0
137500 -87500 0
137500 -100000 0
143750 -100000 0
137500 -93750 0
143750 -93750 0
143750 -100000 0
150000 -100000 0
143750 -93750 0
150000 -93750 0
137500 -93750 0
143750 -93750 0
137500 -87500 0
143750 -87500 0
143750 -93750 0
150000 -93750 0
143750 -87500 0
150000 -87500 0
125000 -87500 0
131250 -87500 0
125000 -81250 0
131250 -81250 0
131250 -87500 0
137500 -87500 0
131250 -81250 0
137500 -81250 0
125000 -81250 0
131250 -81250 0
125000 -75000 0
131250 -75000 0
131250 -81250 0
137500 -81250 0
131250 -75000 0
137500 -75000 0
137500 -87500 0
143750 -87500 0
137500 -81250 0
143750 -81250 0
143750 -87500 0
150000 -87500 0
143750 -81250 0
150000 -81250 0
137500 -81250 0
143750 -81250 0
137500 -75000 0
143750 -75000 0
143750 -81250 0
150000 -81250 0
143750 -75000 0
150000 -75000 0
112500 -75000 0
118750 -75000 0
112500 -68750 0
118750 -68750 0
118750 -75000 0
125000 -75000 0
118750 -68750 0
125000 -68750 0
112500 -68750 0
118750 -68750 0
112500 -62500 0
118750 -62500 0
118750 -68750 0
125000 -68750 0
118750 -62500 0
125000 -62500 0
100000 -62500 0
106250 -62500 0
100000 -56250 0
106250 -56250 0
106250 -62500 0
112500 -62500 0
106250 -56250 0
112500 -56250 0
100000 -56250 0
106250 -56250 0
100000 -50000 0
106250 -50000 0
106250 -56250 0
112500 -56250 0
106250 -50000 0
112500 -50000 0
112500 -62500 0
118750 -62500 0
112500 -56250 0
118750 -56250 0
118750 -62500 0
125000 -62500 0
118750 -56250 0
125000 -56250 0
112500 -56250 0
118750 -56250 0
112500 -50000 0
118750 -50000 0
118750 -56250 0
125000 -56250 0
118750 -50000 0
125000 -50000 0
100000 -25000 0
106250 -25000 0
100000 -18750 0
106250 -18750 0
106250 -25000 0
112500 -25000 0
106250 -18750 0
112500 -18750 0
100000 -18750 0
106250 -18750 0
100000 -12500 0
106250 -12500 0
106250 -18750 0
112500 -18750 0
106250 -12500 0
112500 -12500 0
100000 -12500 0
106250 -12500 0
100000 -6250 0
106250 -6250 0
106250 -12500 0
112500 -12500 0
106250 -6250 0
112500 -6250 0
100000 -6250 0
106250 -6250 0
100000 0 0
106250 0 0
106250 -6250 0
112500 -6250 0
106250 0 0
112500 0 0
150000 -100000 0
156250 -100000 0
150000 -93750 0
156250 -93750 0
156250 -100000 0
162500 -100000 0
156250 -93750 0
162500 -93750 0
150000 -93750 0
156250 -93750 0
150000 -87500 0
156250 -87500 0
156250 -93750 0
162500 -93750 0
156250 -87500 0
162500 -87500 0
150000 -87500 0
156250 -87500 0
150000 -81250 0
156250 -81250 0
156250 -87500 0
162500 -87500 0
156250 -81250 0
162500 -81250 0
150000 -81250 0
156250 -81250 0
150000 -75000 0
156250 -75000 0
156250 -81250 0
162500 -81250 0
156250 -75000 0
162500 -75000 0
100000 -50000 0
106250 -50000 0
100000 -43750 0
106250 -43750 0
106250 -50000 0
112500 -50000 0
106250 -43750 0
112500 -43750 0
100000 -43750 0
106250 -43750 0
100000 -37500 0
106250 -37500 0
106250 -43750 0
112500 -43750 0
106250 -37500 0
112500 -37500 0
137500 -25000 0
143750 -25000 0
137500 -18750 0
143750 -18750 0
143750 -25000 0
150000 -25000 0
143750 -18750 0
150000 -18750 0
137500 -18750 0
143750 -18750 0
137500 -12500 0
143750 -12500 0
143750 -18750 0
150000 -18750 0
143750 -12500 0
150000 -12500 0
125000 -12500 0
131250 -12500 0
125000 -6250 0
131250 -6250 0
131250 -12500 0
137500 -12500 0
131250 -6250 0
137500 -6250 0
125000 -6250 0
131250 -6250 0
125000 0 0
131250 0 0
131250 -6250 0
137500 -6250 0
131250 0 0
137500 0 0
137500 -12500 0
143750 -12500 0
137500 -6250 0
143750 -6250 0
143750 -12500 0
150000 -12500 0
143750 -6250 0
150000 -6250 0
137500 -6250 0
143750 -6250 0
137500 0 0
143750 0 0
143750 -6250 0
150000 -6250 0
143750 0 0
150000 0 0
125000 -37500 0
131250 -37500 0
125000 -31250 0
131250 -31250 0
131250 -37500 0
137500 -37500 0
131250 -31250 0
137500 -31250 0
125000 -31250 0
131250 -31250 0
125000 -25000 0
131250 -25000 0
131250 -31250 0
137500 -31250 0
131250 -25000 0
137500 -25000 0
137500 -37500 0
143750 -37500 0
137500 -31250 0
143750 -31250 0
143750 -37500 0
150000 -37500 0
143750 -31250 0
150000 -31250 0
137500 -31250 0
143750 -31250 0
137500 -25000 0
143750 -25000 0
143750 -31250 0
150000 -31250 0
143750 -25000 0
150000 -25000 0
150000 -25000 0
156250 -25000 0
150000 -18750 0
156250 -18750 0
156250 -25000 0
162500 -25000 0
156250 -18750 0
162500 -18750 0
150000 -18750 0
156250 -18750 0
150000 -12500 0
156250 -12500 0
156250 -18750 0
162500 -18750 0
156250 -12500 0
162500 -12500 0
162500 -25000 0
168750 -25000 0
162500 -18750 0
168750 -18750 0
168750 -25000 0
175000 -25000 0
168750 -18750 0
175000 -18750 0
162500 -18750 0
168750 -18750 0
162500 -12500 0
168750 -12500 0
168750 -18750 0
175000 -18750 0
168750 -12500 0
175000 -12500 0
150000 -12500 0
156250 -12500 0
150000 -6250 0
156250 -6250 0
156250 -12500 0
162500 -12500 0
156250 -6250 0
162500 -6250 0
150000 -6250 0
156250 -6250 0
150000 0 0
156250 0 0
156250 -6250 0
162500 -6250 0
156250 0 0
162500 0 0
0 -100000 0
3125 -100000 0
0 -96875 0
3125 -96875 0
3125 -100000 0
6250 -100000 0
3125 -96875 0
6250 -96875 0
0 -96875 0
3125 -96875 0
0 -93750 0
3125 -93750 0
3125 -96875 0
6250 -96875 0
3125 -93750 0
[...]
POINT_DATA 18272
SCALARS velocity double 1
LOOKUP_TABLE default
-183.84 -194.04 -183.818 -194.023 -183.818 -194.023 -183.752 -193.976 -142.448 -152.72 -141.95 -152.384 -152.09 -162.567 -151.896 -162.436 -152.72 -162.995 -152.384 -162.766 -162.995 -173.27 -162.766 -173.112 -183.274 -193.621 -183.251 -193.604 -153.34 -163.415 -153.058 -163.223 -163.415 -173.56 -163.223 -173.427 -153.058 -163.223 -152.72 -162.995 -163.223 -173.427 -162.995 -173.27 -194.04 -204.275 -194.023 -204.262 -204.275 -214.538 -204.262 -214.526 -194.023 -204.262 -193.976 -204.223 -204.262 -214.526 -204.223 -214.491 -173.56 -183.752 -173.427 -183.657 -183.752 -193.976 -183.657 -193.905 -173.427 -183.657 -173.27 -183.546 -183.657 -193.905 -183.546 -193.822 -193.976 -204.223 -193.905 -204.166 -204.223 -214.491 -204.166 -214.438 -193.905 -204.166 -193.822 -204.099 -204.166 -214.438 -204.099 -214.375 -173.27 -183.546 -173.112 -183.434 -183.546 -193.822 -183.434 -193.739 -173.112 -183.434 -172.977 -183.34 -183.434 -193.739 -183.34 -193.668 -193.822 -204.099 -193.739 -204.031 -204.099 -214.375 -204.031 -214.313 -193.739 -204.031 -193.668 -203.974 -204.031 -214.313 -203.974 -214.26 -193.668 -203.974 -193.621 -203.936 -203.974 -214.26 -203.936 -214.224 -193.621 -203.936 -193.604 -203.922 -203.936 -214.224 -203.922 -214.212 -123.902 -128.68 -123.49 -128.339 -84.4693 -89.7505 -82.1799 -87.9005 -112.535 -117.491 -111.72 -116.822 -117.491 -122.488 -116.822 -121.936 -123.013 -127.943 -122.488 -127.512 -127.943 -132.915 -127.512 -132.559 -122.488 -127.512 -121.936 -127.058 -127.512 -132.559 -127.058 -132.186 -96.5582 -101.576 -95.048 -100.342 -89.7505 -95.048 -87.9005 -93.5424 -101.576 -106.634 -100.342 -105.624 -106.634 -111.72 -105.624 -110.89 -111.72 -116.822 -110.89 -116.141 -116.822 -121.936 -116.141 -121.378 -110.89 -116.141 -110.074 -115.475 -148.645 -153.596 -148.624 -153.579 -148.563 -153.53 -148.466 -153.45 -133.241 -138.185 -132.915 -137.917 -138.185 -143.166 -137.917 -142.944 -146.822 -152.09 -146.685 -151.993 -146.685 -151.993 -146.585 -151.896 -146.52 -151.842 -146.497 -151.826 -136.708 -141.95 -136.428 -141.719 -141.95 -147.167 -141.719 -146.984 -147.167 -152.384 -146.984 -152.225 -141.719 -146.984 -141.519 -146.822 -146.984 -152.225 -146.822 -152.09 -121.936 -127.058 -121.378 -126.599 -127.058 -132.186 -126.599 -131.809 -121.378 -126.599 -120.831 -126.152 -126.599 -131.809 -126.152 -131.443 -120.831 -126.152 -120.321 -125.736 -126.152 -131.443 -125.736 -131.101 -120.321 -125.736 -119.871 -125.371 -125.736 -131.101 -125.371 -130.801 -133.927 -138.752 -133.757 -138.612 -138.752 -143.635 -138.612 -143.519 -133.757 -138.612 -133.525 -138.42 -138.612 -143.519 -138.42 -143.36 -153.596 -158.58 -153.579 -158.567 -158.58 -163.593 -158.567 -163.582 -153.579 -158.567 -153.53 -158.526 -158.567 -163.582 -158.526 -163.548 -163.593 -168.628 -163.582 -168.619 -168.628 -173.683 -168.619 -173.675 -163.582 -168.619 -163.548 -168.591 -168.619 -173.675 -168.591 -173.652 -153.53 -158.526 -153.45 -158.46 -158.526 -163.548 -158.46 -163.494 -153.45 -158.46 -153.34 -158.377 -158.46 -163.494 -158.377 -163.415 -163.548 -168.591 -163.494 -168.545 -168.591 -173.652 -168.545 -173.614 -163.494 -168.545 -163.415 -168.487 -168.545 -173.614 -168.487 -173.56 -143.36 -148.332 -143.166 -148.173 -148.332 -153.34 -148.173 -153.199 -143.166 -148.173 -142.944 -147.99 -148.173 -153.199 -147.99 -153.058 -132.915 -137.917 -132.559 -137.623 -137.917 -142.944 -137.623 -142.702 -132.559 -137.623 -132.186 -137.316 -137.623 -142.702 -137.316 -142.448 -142.944 -147.99 -142.702 -147.792 -147.99 -153.058 -147.792 -152.889 -142.702 -147.792 -142.448 -147.584 -147.792 -152.889 -147.584 -152.72 -130.801 -136.183 -130.55 -135.978 -136.183 -141.519 -135.978 -141.352 -130.55 -135.978 -130.364 -135.825 -135.978 -141.352 -135.825 -141.228 -130.364 -135.825 -130.249 -135.732 -135.825 -141.228 -135.732 -141.151 -130.249 -135.732 -130.21 -135.7 -135.732 -141.151 -135.7 -141.125 -173.683 -178.753 -173.675 -178.747 -178.753 -183.84 -178.747 -183.829 -173.675 -178.747 -173.652 -178.727 -178.747 -183.829 -178.727 -183.818 -173.652 -178.727 -173.614 -178.695 -178.727 -183.818 -178.695 -183.785 -173.614 -178.695 -173.56 -178.656 -178.695 -183.785 -178.656 -183.752 -132.186 -137.316 -131.809 -137.007 -137.316 -142.448 -137.007 -142.199 -131.809 -137.007 -131.443 -136.708 -137.007 -142.199 -136.708 -141.95 -162.567 -167.781 -162.502 -167.718 -167.781 -172.977 -167.718 -172.925 -162.502 -167.718 -162.436 -167.671 -167.718 -172.925 -167.671 -172.886 -151.896 -157.166 -151.842 -157.134 -157.166 -162.436 -157.134 -162.398 -151.842 -157.134 -151.826 -157.12 -157.134 -162.398 -157.12 -162.387 -162.436 -167.671 -162.398 -167.641 -167.671 -172.886 -167.641 -172.862 -162.398 -167.641 -162.387 -167.63 -167.641 -172.862 -167.63 -172.854 -152.384 -157.575 -152.225 -157.449 -157.575 -162.766 -157.449 -162.658 -152.225 -157.449 -152.09 -157.329 -157.449 -162.658 -157.329 -162.567 -162.766 -167.939 -162.658 -167.855 -167.939 -173.112 -167.855 -173.044 -162.658 -167.855 -162.567 -167.781 -167.855 -173.044 -167.781 -172.977 -172.977 -178.158 -172.925 -178.119 -178.158 -183.34 -178.119 -183.301 -172.925 -178.119 -172.886 -178.087 -178.119 -183.301 -178.087 -183.274 -183.34 -188.504 -183.301 -188.475 -188.504 -193.668 -188.475 -193.644 -183.301 -188.475 -183.274 -188.447 -188.475 -193.644 -188.447 -193.621 -172.886 -178.087 -172.862 -178.067 -178.087 -183.274 -178.067 -183.263 -172.862 -178.067 -172.854 -178.061 -178.067 -183.263 -178.061 -183.251 -84.1684 -84.2368 -84.0999 -84.1685 -84.2368 -84.4416 -84.1685 -84.3739 -84.0999 -84.1685 -83.8938 -83.9631 -84.1685 -84.3739 -83.9631 -84.1705 -84.4416 -84.7815 -84.3739 -84.7148 -84.7815 -85.2543 -84.7148 -85.1891 -84.3739 -84.7148 -84.1705 -84.5146 -84.7148 -85.1891 -84.5146 -84.9932 -83.8938 -83.9631 -83.5488 -83.6193 -83.9631 -84.1705 -83.6193 -83.83 -83.5488 -83.6193 -83.0629 -83.1346 -83.6193 -83.83 -83.1346 -83.3503 -84.1705 -84.5146 -83.83 -84.1796 -84.5146 -84.9932 -84.1796 -84.6656 -83.83 -84.1796 -83.3503 -83.708 -84.1796 -84.6656 -83.708 -84.2049 -85.2543 -85.8574 -85.1891 -85.7939 -85.8574 -86.5872 -85.7939 -86.5257 -85.1891 -85.7939 -84.9932 -85.6033 -85.7939 -86.5257 -85.6033 -86.3411 -86.5872 -87.4397 -86.5257 -87.3804 -87.4397 -88.4107 -87.3804 -88.3538 -86.5257 -87.3804 -86.3411 -87.2026 -87.3804 -88.3538 -87.2026 -88.1827 -84.9932 -85.6033 -84.6656 -85.2846 -85.6033 -86.3411 -85.2846 -86.0328 -84.6656 -85.2846 -84.2049 -84.8367 -85.2846 -86.0328 -84.8367 -85.5995 -86.3411 -87.2026 -86.0328 -86.9057 -87.2026 -88.1827 -86.9057 -87.8983 -86.0328 -86.9057 -85.5995 -86.4889 -86.9057 -87.8983 -86.4889 -87.4995 -83.0629 -83.1346 -82.4334 -82.5066 -83.1346 -83.3503 -82.5066 -82.7258 -83.3503 -83.708 -82.7258 -83.0988 -83.708 -84.2049 -83.0988 -83.6088 -83.0988 -83.6088 -82.347 -82.8741 -84.2049 -84.8367 -83.6088 -84.2573 -84.8367 -85.5995 -84.2573 -85.0396 -83.6088 -84.2573 -82.8741 -83.5437 -84.2573 -85.0396 -83.5437 -84.3508 -85.5995 -86.4889 -85.0396 -85.9508 -86.4889 -87.4995 -85.9508 -86.9849 -85.0396 -85.9508 -84.3508 -85.2894 -85.9508 -86.9849 -85.2894 -86.3533 -82.8741 -83.5437 -81.9967 -82.6925 -83.5437 -84.3508 -82.6925 -83.5301 -82.6925 -83.5301 -81.6993 -82.5742 -84.3508 -85.2894 -83.5301 -84.5027 -85.2894 -86.3533 -84.5027 -85.6031 -83.5301 -84.5027 -82.5742 -83.5881 -84.5027 -85.6031 -83.5881 -84.7326 -88.4107 -89.499 -88.3538 -89.4393 -88.3538 -89.4393 -88.1827 -89.2761 -89.4393 -90.6289 -89.2761 -90.4782 -90.6289 -91.9282 -90.4782 -91.7842 -88.1827 -89.2761 -87.8983 -89.0055 -89.2761 -90.4782 -89.0055 -90.2218 -87.8983 -89.0055 -87.4995 -88.6257 -89.0055 -90.2218 -88.6257 -89.8617 -90.4782 -91.7842 -90.2218 -91.5416 -90.2218 -91.5416 -89.8617 -91.2015 -90.1347 -92.494 -89.1486 -91.5982 -109.374 -111.447 -109.35 -111.424 -111.447 -113.564 -111.424 -113.543 -113.564 -115.722 -113.543 -115.704 -87.4995 -88.6257 -86.9849 -88.1361 -88.6257 -89.8617 -88.1361 -89.3979 -86.9849 -88.1361 -86.3533 -87.5358 -88.1361 -89.3979 -87.5358 -88.8298 -89.8617 -91.2015 -89.3979 -90.7638 -89.3979 -90.7638 -88.8298 -90.2285 -86.3533 -87.5358 -85.6031 -86.8239 -87.5358 -88.8298 -86.8239 -88.1572 -85.6031 -86.8239 -84.7326 -85.9993 -86.8239 -88.1572 -85.9993 -87.3796 -88.8298 -90.2285 -88.1572 -89.5956 -88.1572 -89.5956 -87.3796 -88.8653 -110.681 -112.861 -110.411 -112.614 -82.5742 -83.5881 -81.479 -82.5427 -83.5881 -84.7326 -82.5427 -83.7403 -82.5427 -83.7403 -81.368 -82.6231 -81.368 -82.6231 -80.0476 -81.3786 -80.0476 -81.3786 -78.5819 -80.0058 -84.7326 -85.9993 -83.7403 -85.061 -85.9993 -87.3796 -85.061 -86.4967 -83.7403 -85.061 -82.6231 -84.0078 -85.061 -86.4967 -84.0078 -85.5084 -87.3796 -88.8653 -86.4967 -88.038 -86.4967 -88.038 -85.5084 -87.1143 -82.6231 -84.0078 -81.3786 -82.839 -84.0078 -85.5084 -82.839 -84.4149 -81.3786 -82.839 -80.0058 -81.5556 -82.839 -84.4149 -81.5556 -83.218 -85.5084 -87.1143 -84.4149 -86.0956 -84.4149 -86.0956 -83.218 -84.9806 -93.3731 -94.8551 -93.3263 -94.812 -94.8551 -96.424 -94.812 -96.3837 -93.3263 -94.812 -93.188 -94.6827 -94.812 -96.3837 -94.6827 -96.2629 -102.178 -104.414 -101.611 -103.897 -96.4272 -98.7037 -95.6704 -98.0138 -80.0058 -81.5556 -78.5091 -80.1569 -81.5556 -83.218 -80.1569 -81.9227 -78.5091 -80.1569 -76.8761 -78.6444 -80.1569 -81.9227 -78.6444 -80.5238 -76.8761 -78.6444 -75.1175 -77.0205 -78.6444 -80.5238 -77.0205 -79.0289 -75.1175 -77.0205 -73.2284 -75.2926 -99.3601 -101.611 -98.7037 -101.012 -101.611 -103.897 -101.012 -103.35 -98.7037 -101.012 -98.0138 -100.384 -101.012 -103.35 -100.384 -102.778 -93.3595 -95.6704 -92.494 -94.8826 -95.6704 -98.0138 -94.8826 -97.2973 -92.494 -94.8826 -91.5982 -94.0692 -94.8826 -97.2973 -94.0692 -96.5582 -66.9342 -69.6065 -64.6848 -67.6087 -69.6065 -72.3225 -67.6087 -70.54 -80.6276 -83.1024 -79.2301 -81.8427 -83.1024 -85.6097 -81.8427 -84.4693 -76.3869 -79.2914 -74.977 -78.0334 -79.2914 -82.1799 -78.0334 -81.0511 -82.1799 -85.0402 -81.0511 -84.0367 -85.0402 -87.9005 -84.0367 -86.9896 -87.9005 -90.7214 -86.9896 -89.9148 -90.7214 -93.5424 -89.9148 -92.8088 -93.5424 -96.3374 -92.8088 -95.6788 -96.3374 -99.1151 -95.6788 -98.5227 -92.8088 -95.6788 -92.1051 -95.0459 -95.6788 -98.5227 -95.0459 -97.9533 -95.0459 -97.9533 -94.4451 -97.4135 -110.441 -113.367 -110.342 -113.276 -71.278 -73.2284 -69.0918 -71.2313 -69.0918 -71.2313 -66.7627 -69.1237 -61.7843 -64.6848 -59.2064 -62.4156 -116.368 -119.217 -116.256 -119.116 -113.367 -116.256 -113.276 -116.176 -116.256 -119.116 -116.176 -119.044 -64.6848 -67.6087 -62.4156 -65.6045 -67.6087 -70.54 -65.6045 -68.7619 -107.3 -110.282 -107.276 -110.261 -110.282 -113.222 -110.261 -113.204 -60.1661 -63.6269 -57.9937 -61.7242 -65.3383 -68.8571 -63.7614 -67.4602 -68.8571 -72.283 -67.4602 -71.0476 -113.276 -116.176 -113.222 -116.127 -116.176 -119.044 -116.127 -119 -113.222 -116.127 -113.204 -116.111 -116.127 -119 -116.111 -118.985 -67.4602 -71.0476 -66.1768 -69.9094 -71.0476 -74.5355 -69.9094 -73.5235 -69.9094 -73.5235 -68.8837 -72.6166 -73.5235 -77.0339 -72.6166 -76.2268 -68.8837 -72.6166 -68.0048 -71.8274 -72.6166 -76.2268 -71.8274 -75.5234 -71.8274 -75.5234 -71.1626 -74.9351 -76.2268 -79.7327 -75.5234 -79.1053 -75.5234 -79.1053 -74.9351 -78.5805 -79.1053 -82.5864 -78.5805 -82.1138 -71.1626 -74.9351 -70.6485 -74.4692 -74.9351 -78.5805 -74.4692 -78.1641 -78.5805 -82.1138 -78.1641 -81.7463 -74.4692 -78.1641 -74.1272 -77.863 -78.1641 -81.7463 -77.863 -81.4778 -74.1272 -77.863 -73.9252 -77.6799 -77.863 -81.4778 -77.6799 -81.3146 -73.9252 -77.6799 -73.8574 -77.6189 -77.6799 -81.3146 -77.6189 -81.2549 -96.424 -98.0735 -96.3837 -98.036 -98.0735 -99.7983 -98.036 -99.7633 -96.3837 -98.036 -96.2629 -97.9234 -98.036 -99.7633 -97.9234 -99.6586 -93.188 -94.6827 -92.959 -94.4677 -94.6827 -96.2629 -94.4677 -96.062 -92.959 -94.4677 -92.6388 -94.1674 -94.4677 -96.062 -94.1674 -95.7812 -96.2629 -97.9234 -96.062 -97.736 -97.9234 -99.6586 -97.736 -99.4844 -96.062 -97.736 -95.7812 -97.4744 -97.736 -99.4844 -97.4744 -99.2413 -92.6388 -94.1674 -92.2272 -93.7818 -94.1674 -95.7812 -93.7818 -95.4212 -92.2272 -93.7818 -91.7247 -93.3116 -93.7818 -95.4212 -93.3116 -94.9826 -95.7812 -97.4744 -95.4212 -97.1392 -97.4744 -99.2413 -97.1392 -98.93 -95.4212 -97.1392 -94.9826 -96.7313 -97.1392 -98.93 -96.7313 -98.5517 -81.7463 -85.2276 -81.4778 -84.9844 -91.7247 -93.3116 -91.1314 -92.7574 -93.3116 -94.9826 -92.7574 -94.4665 -91.1314 -92.7574 -90.4482 -92.1202 -92.7574 -94.4665 -92.1202 -93.874 -81.4778 -84.9844 -81.3146 -84.8427 -94.9826 -96.7313 -94.4665 -96.252 -96.7313 -98.5517 -96.252 -98.1076 -94.4665 -96.252 -93.874 -95.7026 -96.252 -98.1076 -95.7026 -97.5994 -90.4482 -92.1202 -89.6758 -91.4014 -92.1202 -93.874 -91.4014 -93.207 -89.6758 -91.4014 -88.8156 -90.6029 -91.4014 -93.207 -90.6029 -92.4677 -93.874 -95.7026 -93.207 -95.0852 -95.7026 -97.5994 -95.0852 -97.0292 -93.207 -95.0852 -92.4677 -94.4022 -95.0852 -97.0292 -94.4022 -96.3996 -88.8156 -90.6029 -87.8697 -89.7271 -90.6029 -92.4677 -89.7271 -91.6588 -87.8697 -89.7271 -86.8414 -88.7775 -89.7271 -91.6588 -88.7775 -90.7838 -92.4677 -94.4022 -91.6588 -93.6566 -94.4022 -96.3996 -93.6566 -95.7134 -91.6588 -93.6566 -90.7838 -92.8523 -93.6566 -95.7134 -92.8523 -94.9751 -86.8414 -88.7775 -85.734 -87.7579 -88.7775 -90.7838 -87.7579 -89.847 -85.734 -87.7579 -84.5515 -86.6736 -87.7579 -89.847 -86.6736 -88.8542 -90.7838 -92.8523 -89.847 -91.9933 -92.8523 -94.9751 -91.9933 -94.1903 -89.847 -91.9933 -88.8542 -91.0838 -91.9933 -94.1903 -91.0838 -93.3595 -84.5515 -86.6736 -83.301 -85.5305 -86.6736 -88.8542 -85.5305 -87.813 -83.301 -85.5305 -81.9882 -84.336 -85.5305 -87.813 -84.336 -86.7265 -99.7983 -101.593 -99.7633 -101.561 -101.593 -103.453 -101.561 -103.423 -99.7633 -101.561 -99.6586 -101.463 -101.561 -103.423 -101.463 -103.333 -103.453 -105.373 -103.423 -105.345 -105.373 -107.348 -105.345 -107.323 -103.423 -105.345 -103.333 -105.261 -105.345 -107.323 -105.261 -107.245 -99.6586 -101.463 -99.4844 -101.302 -101.463 -103.333 -101.302 -103.183 -99.4844 -101.302 -99.2413 -101.076 -101.302 -103.183 -101.076 -102.975 -103.333 -105.261 -103.183 -105.123 -105.261 -107.245 -105.123 -107.117 -103.183 -105.123 -102.975 -104.931 -105.123 -107.117 -104.931 -106.94 -107.245 -109.278 -107.117 -109.162 -109.278 -111.361 -109.162 -111.253 -107.117 -109.162 -106.94 -108.997 -109.162 -111.253 -108.997 -111.103 -99.2413 -101.076 -98.93 -100.788 -101.076 -102.975 -100.788 -102.708 -98.93 -100.788 -98.5517 -100.438 -100.788 -102.708 -100.438 -102.385 -102.975 -104.931 -102.708 -104.685 -104.931 -106.94 -104.685 -106.716 -102.708 -104.685 -102.385 -104.387 -104.685 -106.716 -104.387 -106.441 -98.5517 -100.438 -98.1076 -100.027 -100.438 -102.385 -100.027 -102.005 -98.1076 -100.027 -97.5994 -99.5583 -100.027 -102.005 -99.5583 -101.573 -102.385 -104.387 -102.005 -104.038 -104.387 -106.441 -104.038 -106.12 -102.005 -104.038 -101.573 -103.638 -104.038 -106.12 -103.638 -105.753 -128.68 -131.094 -128.51 -130.945 -131.094 -133.525 -130.945 -133.39 -128.51 -130.945 -128.339 -130.783 -130.945 -133.39 -130.783 -133.241 -123.49 -125.914 -123.26 -125.698 -125.914 -128.339 -125.698 -128.149 -123.26 -125.698 -123.013 -125.478 -125.698 -128.149 -125.478 -127.943 -128.339 -130.783 -128.149 -130.61 -130.783 -133.241 -130.61 -133.078 -128.149 -130.61 -127.943 -130.429 -130.61 -133.078 -130.429 -132.915 -115.722 -117.916 -115.704 -117.9 -117.916 -120.144 -117.9 -120.129 -115.704 -117.9 -115.651 -117.85 -117.9 -120.129 -117.85 -120.083 -120.144 -122.402 -120.129 -122.388 -122.402 -124.688 -122.388 -124.675 -120.129 -122.388 -120.083 -122.346 -122.388 -124.675 -122.346 -124.637 -115.651 -117.85 -115.56 -117.767 -117.85 -120.083 -117.767 -120.007 -115.56 -117.767 -115.434 -117.652 -117.767 -120.007 -117.652 -119.902 -120.083 -122.346 -120.007 -122.277 -122.346 -124.637 -122.277 -124.573 -120.007 -122.277 -119.902 -122.18 -122.277 -124.573 -122.18 -124.485 -124.688 -127 -124.675 -126.988 -127 -129.335 -126.988 -129.324 -124.675 -126.988 -124.637 -126.953 -126.988 -129.324 -126.953 -129.292 -129.335 -131.691 -129.324 -131.682 -131.691 -134.067 -131.682 -134.059 -129.324 -131.682 -129.292 -131.653 -131.682 -134.059 -131.653 -134.032 -124.637 -126.953 -124.573 -126.895 -126.953 -129.292 -126.895 -129.239 -124.573 -126.895 -124.485 -126.814 -126.895 -129.239 -126.814 -129.165 -129.292 -131.653 -129.239 -131.604 -131.653 -134.032 -131.604 -133.989 -129.239 -131.604 -129.165 -131.536 -131.604 -133.989 -131.536 -133.927 -115.434 -117.652 -115.273 -117.505 -117.652 -119.902 -117.505 -119.767 -115.273 -117.505 -115.079 -117.327 -117.505 -119.767 -117.327 -119.605 -119.902 -122.18 -119.767 -122.057 -122.18 -124.485 -122.057 -124.373 -119.767 -122.057 -119.605 -121.909 -122.057 -124.373 -121.909 -124.238 -115.079 -117.327 -114.853 -117.12 -117.327 -119.605 -117.12 -119.415 -114.853 -117.12 -114.595 -116.885 -117.12 -119.415 -116.885 -119.201 -119.605 -121.909 -119.415 -121.736 -121.909 -124.238 -121.736 -124.082 -119.415 -121.736 -119.201 -121.54 -121.736 -124.082 -121.54 -123.902 -97.5994 -99.5583 -97.0292 -99.0329 -99.5583 -101.573 -99.0329 -101.091 -97.0292 -99.0329 -96.3996 -98.4536 -99.0329 -101.091 -98.4536 -100.559 -96.3996 -98.4536 -95.7134 -97.8232 -98.4536 -100.559 -97.8232 -99.9807 -95.7134 -97.8232 -94.9751 -97.1447 -97.8232 -99.9807 -97.1447 -99.3601 -124.485 -126.814 -124.373 -126.712 -126.814 -129.165 -126.712 -129.072 -124.373 -126.712 -124.238 -126.589 -126.712 -129.072 -126.589 -128.96 -129.165 -131.536 -129.072 -131.451 -131.536 -133.927 -131.451 -133.842 -129.072 -131.451 -128.96 -131.348 -131.451 -133.842 -131.348 -133.757 -124.238 -126.589 -124.082 -126.446 -126.589 -128.96 -126.446 -128.83 -124.082 -126.446 -123.902 -126.291 -126.446 -128.83 -126.291 -128.68 -128.96 -131.348 -128.83 -131.229 -131.348 -133.757 -131.229 -133.641 -128.83 -131.229 -128.68 -131.094 -131.229 -133.641 -131.094 -133.525 -98.0138 -100.384 -97.2973 -99.7327 -100.384 -102.778 -99.7327 -102.186 -97.2973 -99.7327 -96.5582 -99.0671 -99.7327 -102.186 -99.0671 -101.576 -105.753 -107.908 -105.347 -107.536 -107.908 -110.103 -107.536 -109.762 -105.347 -107.536 -104.9 -107.127 -107.536 -109.762 -107.127 -109.388 -110.103 -112.332 -109.762 -112.02 -112.332 -114.595 -112.02 -114.309 -109.762 -112.02 -109.388 -111.679 -112.02 -114.309 -111.679 -113.997 -104.9 -107.127 -104.414 -106.684 -107.127 -109.388 -106.684 -108.984 -104.414 -106.684 -103.897 -106.212 -106.684 -108.984 -106.212 -108.553 -109.388 -111.679 -108.984 -111.31 -111.679 -113.997 -111.31 -113.661 -108.984 -111.31 -108.553 -110.918 -111.31 -113.661 -110.918 -113.303 -103.897 -106.212 -103.35 -105.713 -106.212 -108.553 -105.713 -108.099 -103.35 -105.713 -102.778 -105.193 -105.713 -108.099 -105.193 -107.625 -108.553 -110.918 -108.099 -110.504 -110.918 -113.303 -110.504 -112.927 -108.099 -110.504 -107.625 -110.073 -110.504 -112.927 -110.073 -112.535 -102.778 -105.193 -102.186 -104.654 -105.193 -107.625 -104.654 -107.136 -102.186 -104.654 -101.576 -104.105 -104.654 -107.136 -104.105 -106.634 -107.625 -110.073 -107.136 -109.629 -110.073 -112.535 -109.629 -112.128 -107.136 -109.629 -106.634 -109.177 -109.629 -112.128 -109.177 -111.72 -77.4521 -79.6864 -75.8005 -78.1888 -79.6864 -81.9882 -78.1888 -80.6276 -75.8005 -78.1888 -74.0848 -76.6407 -78.1888 -80.6276 -76.6407 -79.2301 -74.0848 -76.6407 -72.3225 -75.0605 -76.6407 -79.2301 -75.0605 -77.8109 -72.3225 -75.0605 -70.54 -73.4683 -75.0605 -77.8109 -73.4683 -76.3869 -86.7265 -89.1486 -85.6097 -88.1368 -89.1486 -91.5982 -88.1368 -90.6814 -85.6097 -88.1368 -84.4693 -87.1099 -88.1368 -90.6814 -87.1099 -89.7505 -79.2301 -81.8427 -77.8109 -80.567 -81.8427 -84.4693 -80.567 -83.3246 -77.8109 -80.567 -76.3869 -79.2914 -80.567 -83.3246 -79.2914 -82.1799 -70.54 -73.4683 -68.7619 -71.8867 -73.4683 -76.3869 -71.8867 -74.977 -68.7619 -71.8867 -67.0171 -70.3411 -71.8867 -74.977 -70.3411 -73.6013 -79.9566 -83.0591 -78.9121 -82.1274 -83.0591 -86.1153 -82.1274 -85.2823 -78.9121 -82.1274 -77.9346 -81.2569 -82.1274 -85.2823 -81.2569 -84.502 -86.1153 -8