# vtk DataFile Version 3.0
#This file was generated by the deal.II library on 2016/5/13 at 16:44:17
ASCII
DATASET UNSTRUCTURED_GRID

POINTS 26120 double
162500 -25000 0
175000 -25000 0
162500 -12500 0
175000 -12500 0
150000 -62500 0
162500 -62500 0
150000 -50000 0
162500 -50000 0
162500 -62500 0
175000 -62500 0
162500 -50000 0
175000 -50000 0
187500 -75000 0
200000 -75000 0
187500 -62500 0
200000 -62500 0
175000 -62500 0
187500 -62500 0
175000 -50000 0
187500 -50000 0
187500 -62500 0
200000 -62500 0
187500 -50000 0
200000 -50000 0
150000 -50000 0
162500 -50000 0
150000 -37500 0
162500 -37500 0
162500 -50000 0
175000 -50000 0
162500 -37500 0
175000 -37500 0
175000 -50000 0
187500 -50000 0
175000 -37500 0
187500 -37500 0
187500 -50000 0
200000 -50000 0
187500 -37500 0
200000 -37500 0
187500 -37500 0
200000 -37500 0
187500 -25000 0
200000 -25000 0
93750 -56250 0
100000 -56250 0
93750 -50000 0
100000 -50000 0
68750 -50000 0
75000 -50000 0
68750 -43750 0
75000 -43750 0
75000 -50000 0
81250 -50000 0
75000 -43750 0
81250 -43750 0
81250 -50000 0
87500 -50000 0
81250 -43750 0
87500 -43750 0
81250 -43750 0
87500 -43750 0
81250 -37500 0
87500 -37500 0
112500 -100000 0
118750 -100000 0
112500 -93750 0
118750 -93750 0
112500 -93750 0
118750 -93750 0
112500 -87500 0
118750 -87500 0
118750 -93750 0
125000 -93750 0
118750 -87500 0
125000 -87500 0
112500 -87500 0
118750 -87500 0
112500 -81250 0
118750 -81250 0
112500 -81250 0
118750 -81250 0
112500 -75000 0
118750 -75000 0
118750 -81250 0
125000 -81250 0
118750 -75000 0
125000 -75000 0
100000 -75000 0
106250 -75000 0
100000 -68750 0
106250 -68750 0
106250 -75000 0
112500 -75000 0
106250 -68750 0
112500 -68750 0
112500 -25000 0
118750 -25000 0
112500 -18750 0
118750 -18750 0
100000 -37500 0
106250 -37500 0
100000 -31250 0
106250 -31250 0
106250 -31250 0
112500 -31250 0
106250 -25000 0
112500 -25000 0
87500 -50000 0
93750 -50000 0
87500 -43750 0
93750 -43750 0
93750 -50000 0
100000 -50000 0
93750 -43750 0
100000 -43750 0
100000 -56250 0
106250 -56250 0
100000 -50000 0
106250 -50000 0
106250 -56250 0
112500 -56250 0
106250 -50000 0
112500 -50000 0
112500 -56250 0
118750 -56250 0
112500 -50000 0
118750 -50000 0
118750 -56250 0
125000 -56250 0
118750 -50000 0
125000 -50000 0
150000 -100000 0
156250 -100000 0
150000 -93750 0
156250 -93750 0
156250 -100000 0
162500 -100000 0
156250 -93750 0
162500 -93750 0
150000 -93750 0
156250 -93750 0
150000 -87500 0
156250 -87500 0
156250 -93750 0
162500 -93750 0
156250 -87500 0
162500 -87500 0
150000 -87500 0
156250 -87500 0
150000 -81250 0
156250 -81250 0
156250 -87500 0
162500 -87500 0
156250 -81250 0
162500 -81250 0
150000 -81250 0
156250 -81250 0
150000 -75000 0
156250 -75000 0
156250 -81250 0
162500 -81250 0
156250 -75000 0
162500 -75000 0
100000 -50000 0
106250 -50000 0
100000 -43750 0
106250 -43750 0
106250 -50000 0
112500 -50000 0
106250 -43750 0
112500 -43750 0
143750 -25000 0
150000 -25000 0
143750 -18750 0
150000 -18750 0
131250 -37500 0
137500 -37500 0
131250 -31250 0
137500 -31250 0
137500 -37500 0
143750 -37500 0
137500 -31250 0
143750 -31250 0
143750 -37500 0
150000 -37500 0
143750 -31250 0
150000 -31250 0
143750 -31250 0
150000 -31250 0
143750 -25000 0
150000 -25000 0
150000 -25000 0
156250 -25000 0
150000 -18750 0
156250 -18750 0
156250 -25000 0
162500 -25000 0
156250 -18750 0
162500 -18750 0
150000 -18750 0
156250 -18750 0
150000 -12500 0
156250 -12500 0
156250 -18750 0
162500 -18750 0
156250 -12500 0
162500 -12500 0
162500 -100000 0
168750 -100000 0
162500 -93750 0
168750 -93750 0
168750 -100000 0
175000 -100000 0
168750 -93750 0
175000 -93750 0
162500 -93750 0
168750 -93750 0
162500 -87500 0
168750 -87500 0
168750 -93750 0
175000 -93750 0
168750 -87500 0
175000 -87500 0
150000 -12500 0
156250 -12500 0
150000 -6250 0
156250 -6250 0
156250 -12500 0
162500 -12500 0
156250 -6250 0
162500 -6250 0
150000 -6250 0
156250 -6250 0
150000 0 0
156250 0 0
156250 -6250 0
162500 -6250 0
156250 0 0
162500 0 0
162500 -87500 0
168750 -87500 0
162500 -81250 0
168750 -81250 0
168750 -87500 0
175000 -87500 0
168750 -81250 0
175000 -81250 0
162500 -81250 0
168750 -81250 0
162500 -75000 0
168750 -75000 0
168750 -81250 0
175000 -81250 0
168750 -75000 0
175000 -75000 0
112500 -50000 0
118750 -50000 0
112500 -43750 0
118750 -43750 0
118750 -50000 0
125000 -50000 0
118750 -43750 0
125000 -43750 0
112500 -43750 0
118750 -43750 0
112500 -37500 0
118750 -37500 0
118750 -43750 0
125000 -43750 0
118750 -37500 0
125000 -37500 0
125000 -25000 0
131250 -25000 0
125000 -18750 0
131250 -18750 0
131250 -25000 0
137500 -25000 0
131250 -18750 0
137500 -18750 0
125000 -18750 0
131250 -18750 0
125000 -12500 0
131250 -12500 0
131250 -18750 0
137500 -18750 0
131250 -12500 0
137500 -12500 0
125000 -50000 0
131250 -50000 0
125000 -43750 0
131250 -43750 0
131250 -50000 0
137500 -50000 0
131250 -43750 0
137500 -43750 0
125000 -43750 0
131250 -43750 0
125000 -37500 0
131250 -37500 0
131250 -43750 0
137500 -43750 0
131250 -37500 0
137500 -37500 0
137500 -50000 0
143750 -50000 0
137500 -43750 0
143750 -43750 0
143750 -50000 0
150000 -50000 0
143750 -43750 0
150000 -43750 0
137500 -43750 0
143750 -43750 0
137500 -37500 0
143750 -37500 0
143750 -43750 0
150000 -43750 0
143750 -37500 0
150000 -37500 0
162500 -12500 0
168750 -12500 0
162500 -6250 0
168750 -6250 0
168750 -12500 0
175000 -12500 0
168750 -6250 0
175000 -6250 0
162500 -6250 0
168750 -6250 0
162500 0 0
168750 0 0
168750 -6250 0
175000 -6250 0
168750 0 0
175000 0 0
125000 -75000 0
131250 -75000 0
125000 -68750 0
131250 -68750 0
131250 -75000 0
137500 -75000 0
131250 -68750 0
137500 -68750 0
125000 -68750 0
131250 -68750 0
125000 -62500 0
131250 -62500 0
131250 -68750 0
137500 -68750 0
131250 -62500 0
137500 -62500 0
137500 -75000 0
143750 -75000 0
137500 -68750 0
143750 -68750 0
143750 -75000 0
150000 -75000 0
143750 -68750 0
150000 -68750 0
137500 -68750 0
143750 -68750 0
137500 -62500 0
143750 -62500 0
143750 -68750 0
150000 -68750 0
143750 -62500 0
150000 -62500 0
125000 -62500 0
131250 -62500 0
125000 -56250 0
131250 -56250 0
131250 -62500 0
137500 -62500 0
131250 -56250 0
137500 -56250 0
125000 -56250 0
131250 -56250 0
125000 -50000 0
131250 -50000 0
131250 -56250 0
137500 -56250 0
131250 -50000 0
137500 -50000 0
137500 -62500 0
143750 -62500 0
137500 -56250 0
143750 -56250 0
143750 -62500 0
150000 -62500 0
143750 -56250 0
150000 -56250 0
137500 -56250 0
143750 -56250 0
137500 -50000 0
143750 -50000 0
143750 -56250 0
150000 -56250 0
143750 -50000 0
150000 -50000 0
175000 -100000 0
181250 -100000 0
175000 -93750 0
181250 -93750 0
181250 -100000 0
187500 -100000 0
181250 -93750 0
187500 -93750 0
175000 -93750 0
181250 -93750 0
175000 -87500 0
181250 -87500 0
181250 -93750 0
187500 -93750 0
181250 -87500 0
187500 -87500 0
187500 -100000 0
193750 -100000 0
187500 -93750 0
193750 -93750 0
193750 -100000 0
200000 -100000 0
193750 -93750 0
200000 -93750 0
187500 -93750 0
193750 -93750 0
187500 -87500 0
193750 -87500 0
193750 -93750 0
200000 -93750 0
193750 -87500 0
200000 -87500 0
175000 -87500 0
181250 -87500 0
175000 -81250 0
181250 -81250 0
181250 -87500 0
187500 -87500 0
181250 -81250 0
187500 -81250 0
175000 -81250 0
181250 -81250 0
175000 -75000 0
181250 -75000 0
181250 -81250 0
187500 -81250 0
181250 -75000 0
187500 -75000 0
187500 -87500 0
193750 -87500 0
187500 -81250 0
193750 -81250 0
193750 -87500 0
200000 -87500 0
193750 -81250 0
200000 -81250 0
187500 -81250 0
193750 -81250 0
187500 -75000 0
193750 -75000 0
193750 -81250 0
200000 -81250 0
193750 -75000 0
200000 -75000 0
150000 -75000 0
156250 -75000 0
150000 -68750 0
156250 -68750 0
156250 -75000 0
162500 -75000 0
156250 -68750 0
162500 -68750 0
150000 -68750 0
156250 -68750 0
150000 -62500 0
156250 -62500 0
156250 -68750 0
162500 -68750 0
156250 -62500 0
162500 -62500 0
162500 -75000 0
168750 -75000 0
162500 -68750 0
168750 -68750 0
168750 -75000 0
175000 -75000 0
168750 -68750 0
175000 -68750 0
162500 -68750 0
168750 -68750 0
162500 -62500 0
168750 -62500 0
168750 -68750 0
175000 -68750 0
168750 -62500 0
175000 -62500 0
175000 -75000 0
181250 -75000 0
175000 -68750 0
181250 -68750 0
181250 -75000 0
187500 -75000 0
181250 -68750 0
187500 -68750 0
175000 -68750 0
181250 -68750 0
175000 -62500 0
181250 -62500 0
181250 -68750 0
187500 -68750 0
181250 -62500 0
187500 -62500 0
150000 -37500 0
156250 -37500 0
150000 -31250 0
156250 -31250 0
156250 -37500 0
162500 -37500 0
156250 -31250 0
162500 -31250 0
150000 -31250 0
156250 -31250 0
150000 -25000 0
156250 -25000 0
156250 -31250 0
162500 -31250 0
156250 -25000 0
162500 -25000 0
162500 -37500 0
168750 -37500 0
162500 -31250 0
168750 -31250 0
168750 -37500 0
175000 -37500 0
168750 -31250 0
175000 -31250 0
162500 -31250 0
168750 -31250 0
162500 -25000 0
168750 -25000 0
168750 -31250 0
175000 -31250 0
168750 -25000 0
175000 -25000 0
175000 -37500 0
181250 -37500 0
175000 -31250 0
181250 -31250 0
181250 -37500 0
187500 -37500 0
181250 -31250 0
187500 -31250 0
175000 -31250 0
181250 -31250 0
175000 -25000 0
181250 -25000 0
181250 -31250 0
187500 -31250 0
181250 -25000 0
187500 -25000 0
175000 -25000 0
181250 -25000 0
175000 -18750 0
181250 -18750 0
181250 -25000 0
187500 -25000 0
181250 -18750 0
187500 -18750 0
175000 -18750 0
181250 -18750 0
175000 -12500 0
181250 -12500 0
181250 -18750 0
187500 -18750 0
181250 -12500 0
187500 -12500 0
187500 -25000 0
193750 -25000 0
187500 -18750 0
193750 -18750 0
193750 -25000 0
200000 -25000 0
193750 -18750 0
200000 -18750 0
187500 -18750 0
193750 -18750 0
187500 -12500 0
193750 -12500 0
193750 -18750 0
200000 -18750 0
193750 -12500 0
200000 -12500 0
175000 -12500 0
181250 -12500 0
175000 -6250 0
181250 -6250 0
181250 -12500 0
187500 -12500 0
181250 -6250 0
187500 -6250 0
175000 -6250 0
181250 -6250 0
175000 0 0
181250 0 0
181250 -6250 0
187500 -6250 0
181250 0 0
187500 0 0
187500 -12500 0
193750 -12500 0
187500 -6250 0
193750 -6250 0
193750 -12500 0
200000 -12500 0
193750 -6250 0
200000 -6250 0
187500 -6250 0
193750 -6250 0
187500 0 0
193750 0 0
193750 -6250 0
200000 -6250 0
[...]
POINT_DATA 26120
SCALARS velocity double 1
LOOKUP_TABLE default
437.757 438.133 443.15 439.891 427.925 429.268 430.735 431.302 429.268 428.519 431.302 431.815 425.185 424.315 427.94 427.119 428.519 427.94 431.815 431.323 427.94 427.119 431.323 430.854 430.735 431.302 432.166 433.986 431.302 431.815 433.986 434.68 431.815 431.323 434.68 434.59 431.323 430.854 434.59 434.787 434.59 434.787 437.991 438.367 421.886 420.898 419.151 419.664 394.658 407.553 388.657 398.773 407.553 414.78 398.773 402.375 414.78 420.31 402.375 408.715 402.375 408.715 398.159 407.56 383.875 396.624 391.54 399.487 391.54 399.487 404.573 405.407 399.487 396.936 405.407 402.52 404.573 405.407 410.934 411.809 410.934 411.809 414.084 413.273 411.809 407.576 413.273 414.65 413.769 412.719 418.929 415.859 412.719 414.084 415.859 417.071 447.496 449.996 464.739 449.183 427.899 431.099 435.018 430.446 430.446 437.245 443.09 447.496 420.31 419.151 408.715 414.328 419.151 419.664 414.328 420.224 420.898 421.62 419.664 421.243 421.62 423.222 421.243 423.308 423.222 424.82 423.308 424.757 424.82 425.524 424.757 426.329 416.57 417.742 418.398 417.487 417.742 417.809 417.487 418.139 418.398 417.487 420.495 423.823 417.487 418.139 423.823 423.884 420.495 423.823 423.873 425.331 423.823 423.884 425.331 425.493 423.873 425.331 425.663 427.059 425.331 425.493 427.059 427.534 419.664 421.243 420.224 423.019 421.243 423.308 423.019 425.619 435.715 437.115 444.27 443.057 432.601 430.09 442.488 436.821 430.09 430.274 436.821 433.768 430.274 432.166 433.768 434.658 433.768 434.658 435.715 437.115 437.115 437.017 443.057 443.455 437.017 437.757 443.455 440.453 443.057 443.455 450.563 445.626 443.455 440.453 445.626 443.15 417.809 419.214 418.139 421.545 419.214 420.766 421.545 422.281 418.139 421.545 423.884 422.93 421.545 422.281 422.93 423.844 450.563 445.626 453.43 448.382 445.626 443.15 448.382 444.442 453.43 448.382 455.815 450.015 448.382 444.442 450.015 445.376 423.884 422.93 425.493 424.475 422.93 423.844 424.475 424.636 425.493 424.475 427.534 426.962 424.475 424.636 426.962 426.163 423.308 424.757 425.619 428.29 424.757 426.329 428.29 428.992 425.619 428.29 432.091 431.365 428.29 428.992 431.365 433.856 454.146 448.029 456.265 449.475 448.029 440.383 449.475 448.096 456.265 449.475 443.882 449.812 449.475 448.096 449.812 451.155 426.329 428.35 428.992 430.51 428.35 429.363 430.51 430.588 428.992 430.51 433.856 432.601 430.51 430.588 432.601 430.09 429.363 430.11 430.588 430.719 430.11 430.735 430.719 431.451 430.588 430.719 430.09 430.274 430.719 431.451 430.274 432.166 443.15 441.521 444.442 442.203 441.521 439.891 442.203 440.286 444.442 442.203 445.376 442.775 442.203 440.286 442.775 440.489 414.65 417.049 420.082 420.892 417.049 419.655 420.892 422.095 420.082 420.892 424.626 423.617 420.892 422.095 423.617 424.4 419.655 422.763 422.095 424.084 422.763 425.663 424.084 425.801 422.095 424.084 424.4 425.876 424.084 425.801 425.876 427.925 424.626 423.617 425.524 425.954 423.617 424.4 425.954 427.087 425.524 425.954 426.329 428.35 425.954 427.087 428.35 429.363 424.4 425.876 427.087 428.371 425.876 427.925 428.371 429.33 427.087 428.371 429.363 430.11 428.371 429.33 430.11 430.735 420.766 421.206 422.281 422.335 421.206 421.686 422.335 422.568 422.281 422.335 423.844 423.656 422.335 422.568 423.656 423.043 421.686 420.256 422.568 421.36 420.256 418.907 421.36 419.943 422.568 421.36 423.043 422.6 421.36 419.943 422.6 421.876 423.844 423.656 424.636 424.481 423.656 423.043 424.481 423.698 424.636 424.481 426.163 425.62 424.481 423.698 425.62 425.185 423.043 422.6 423.698 423.629 422.6 421.876 423.629 423.561 423.698 423.629 425.185 424.75 423.629 423.561 424.75 424.315 425.663 427.059 425.801 426.901 427.059 427.534 426.901 428.216 425.801 426.901 427.925 428.596 426.901 428.216 428.596 429.268 427.534 426.962 428.216 428.426 426.962 426.163 428.426 427.8 428.216 428.426 429.268 428.894 428.426 427.8 428.894 428.519 426.163 425.62 427.8 427.001 425.62 425.185 427.001 426.563 427.8 427.001 428.519 428.23 427.001 426.563 428.23 427.94 432.166 433.076 434.658 435.06 433.076 433.986 435.06 435.433 434.658 435.06 437.115 437.017 435.06 435.433 437.017 437.757 433.986 434.333 435.433 435.754 434.333 434.68 435.754 436.125 435.433 435.754 437.757 437.945 435.754 436.125 437.945 438.133 434.68 434.635 436.125 436.338 434.635 434.59 436.338 436.29 436.125 436.338 438.133 437.744 436.338 436.29 437.744 437.991 438.133 437.744 439.012 438.884 437.744 437.991 438.884 439.374 439.012 438.884 439.891 438.613 438.884 439.374 438.613 439.861 437.991 438.179 439.374 440.238 438.179 438.367 440.238 440.499 439.374 440.238 439.861 443.085 440.238 440.499 443.085 444.645 439.891 438.613 440.286 437.414 438.613 439.861 437.414 434.261 440.286 437.414 440.489 436.726 437.414 434.261 436.726 429.172 439.861 443.085 434.261 446.409 443.085 444.645 446.409 459.339 434.261 446.409 429.172 448.857 446.409 459.339 448.857 472.055 345.118 357.741 347.217 356.592 343.583 347.217 344.694 354.465 278.558 285.196 281.052 290.406 285.196 281.184 290.406 295.023 281.052 290.406 295.003 300.594 290.406 295.023 300.594 306.655 295.003 300.594 306.771 311.095 300.594 306.655 311.095 318.945 301.522 306.771 304.154 312.866 304.154 312.866 315.319 321.57 306.771 311.095 312.866 318.771 311.095 318.945 318.771 326.583 312.866 318.771 321.57 321.146 318.771 326.583 321.146 331.212 318.373 315.319 320.299 321.237 315.319 321.57 321.237 326.523 320.299 321.237 324.685 321.733 321.237 326.523 321.733 321.42 321.146 331.212 324.772 333.483 326.523 324.772 321.42 327.144 324.772 333.483 327.144 336.075 330.926 331.294 337.274 338.375 339.887 337.274 344.242 350.595 337.274 338.375 350.595 341.068 344.242 350.595 356.284 355.793 350.894 356.284 355.733 359.244 352.421 355.733 357.741 361.143 338.284 344.694 341.682 354.419 364.34 371.867 363.328 369.309 371.867 377.145 369.309 376.266 377.145 385.778 376.266 385.484 385.778 393.664 385.484 400.739 400.739 414.446 420.42 429.009 478.964 491.149 476.718 488.615 491.149 494.271 488.615 497.345 494.271 487.032 497.345 499.593 488.615 497.345 492.595 506.994 497.345 499.593 506.994 518.11 506.994 518.11 520.807 542.274 520.807 542.274 532.557 564.157 565.66 574.279 568.693 579.556 564.157 599.247 565.143 584.436 599.247 608.306 584.436 596.192 565.143 584.436 570.757 583.64 608.306 601.755 596.192 599.245 570.757 583.64 574.279 587.274 583.64 594.756 587.274 598.256 407.232 413.769 410.611 416.349 410.611 416.349 416.327 418.929 406.677 412.954 418.815 413.384 412.954 414.758 413.384 414.066 408.821 416.327 414.758 414.769 416.327 418.929 414.769 417.331 414.758 414.769 414.066 414.205 414.769 417.331 414.205 415.49 378.402 391.092 381.738 386.109 391.092 398.147 386.109 394.658 395.528 407.597 398.147 403.765 407.597 412.513 403.765 408.83 398.147 403.765 394.658 401.106 403.765 408.83 401.106 407.553 333.234 344.282 327.121 329.368 344.282 347.099 329.368 341.954 364.857 371.332 367.483 368.019 343.308 351.485 347.099 353.923 351.485 362.817 353.923 363.602 347.099 353.923 341.954 355.789 353.923 363.602 355.789 365.329 406.856 416.608 413.675 415.187 409.955 413.675 412.513 412.742 413.675 415.187 412.742 415.639 416.608 421.192 415.187 419.005 421.192 418.815 419.005 423.519 415.187 419.005 415.639 418.227 419.005 423.519 418.227 422.108 357.673 371.31 368.274 375.508 371.332 368.274 368.019 370.267 368.274 375.508 370.267 373.68 373.68 378.498 378.312 380.257 378.498 385.553 380.257 386.178 380.257 386.178 390.736 390.739 385.553 386.17 386.178 387.401 386.17 388.657 387.401 389.073 386.178 387.401 390.739 384.154 387.401 389.073 384.154 386.576 388.657 393.715 389.073 392.431 393.715 398.773 392.431 400.611 389.073 392.431 386.576 390.379 392.431 400.611 390.379 395.263 379.996 391.911 387.693 395.879 391.911 398.621 395.879 402.22 387.693 395.879 395.471 400.836 395.879 402.22 400.836 408.821 394.671 398.159 407.639 399.221 398.159 402.859 399.221 398.646 402.859 407.56 398.646 408.103 350.819 365.518 359.971 364.336 365.518 375.71 364.336 376.058 375.71 383.875 376.058 387.708 364.336 376.058 372.204 381.331 376.058 387.708 381.331 391.54 372.204 381.331 385.077 388.835 381.331 391.54 388.835 398.056 388.835 398.056 400.242 404.573 362.817 367.483 363.602 370.535 367.483 368.019 370.535 377.84 363.602 370.535 365.329 371.764 370.535 377.84 371.764 376.143 412.513 412.742 408.83 412.04 412.742 415.639 412.04 414.778 408.83 412.04 407.553 411.167 412.04 414.778 411.167 414.78 415.639 418.227 414.778 416.733 418.227 422.108 416.733 419.048 414.778 416.733 414.78 417.545 416.733 419.048 417.545 420.31 418.815 413.384 423.519 420.29 413.384 414.066 420.29 418.915 423.519 420.29 422.108 422.583 420.29 418.915 422.583 421.886 414.066 414.205 418.915 418.544 414.205 415.49 418.544 418.124 418.915 418.544 421.886 421.392 418.544 418.124 421.392 420.898 422.108 422.583 419.048 420.939 422.583 421.886 420.939 420.519 419.048 420.939 420.31 419.73 420.939 420.519 419.73 419.151 371.31 377.157 375.508 375.733 377.157 381.738 375.733 379.533 375.508 375.733 373.68 378.498 375.733 379.533 378.498 385.553 368.019 370.267 377.84 382.402 370.267 373.68 382.402 378.312 377.84 382.402 376.143 380.042 382.402 378.312 380.042 386.937 381.738 386.109 379.533 387.426 386.109 394.658 387.426 391.657 379.533 387.426 385.553 386.17 387.426 391.657 386.17 388.657 464.739 456.961 473.727 464.56 456.961 449.183 464.56 455.359 473.727 464.56 489.501 464.103 464.56 455.359 464.103 463.797 464.103 463.797 455.309 469.271 455.309 469.271 473.804 472.525 463.797 467.105 469.271 481.981 469.271 481.981 472.525 475.431 481.981 454.201 475.431 473.802 473.804 472.525 494.059 479.719 529.926 494.059 524.513 506.022 494.059 479.719 506.022 485.546 398.773 400.574 400.611 398.805 400.574 402.375 398.805 400.267 400.611 398.805 395.263 394.671 398.805 400.267 394.671 398.159 435.018 432.732 443.497 426.174 432.732 430.446 426.174 436.768 426.174 436.768 445.554 443.09 396.624 392.693 398.056 395.509 392.693 389.636 395.509 392.425 398.056 395.509 399.487 398.212 395.509 392.425 398.212 396.936 405.407 403.964 408.608 406.687 403.964 402.52 406.687 403.915 408.608 406.687 411.809 409.693 406.687 403.915 409.693 407.576 418.929 417.394 417.331 417.289 417.394 415.859 417.289 417.136 417.331 417.289 415.49 417.21 417.289 417.136 417.21 418.962 415.859 416.465 417.136 418.631 416.465 417.071 418.631 420.203 417.136 418.631 418.962 420.947 418.631 420.203 420.947 422.407 449.996 451.97 449.589 452.386 451.97 454.146 452.386 455.205 449.589 452.386 449.183 452.737 452.386 455.205 452.737 456.265 449.183 452.737 455.359 454.8 452.737 456.265 454.8 450.073 455.359 454.8 463.797 467.105 454.8 450.073 467.105 443.882 472.525 475.431 479.719 479.178 475.431 473.802 479.178 479.893 479.719 479.178 485.546 482.81 479.178 479.893 482.81 483.699 431.099 429.977 430.773 429.867 429.977 432.091 429.867 434.115 430.773 429.867 430.446 433.846 429.867 434.115 433.846 437.245 432.091 431.728 434.115 436.755 431.728 431.365 436.755 433.684 434.115 436.755 437.245 438.674 436.755 433.684 438.674 440.202 431.365 432.611 433.684 436.933 432.611 433.856 436.933 439.327 433.684 436.933 440.202 442.109 436.933 439.327 442.109 444.016 437.245 438.674 442.371 444.328 438.674 440.202 444.328 445.318 442.371 444.328 447.496 448.746 444.328 445.318 448.746 449.996 440.202 442.109 445.318 446.798 442.109 444.016 446.798 448.836 445.318 446.798 449.996 451.97 446.798 448.836 451.97 454.146 408.715 411.522 408.138 413.153 411.522 414.328 413.153 416.764 408.138 413.153 407.56 413.769 413.153 416.764 413.769 419.548 414.328 417.276 416.764 420.221 417.276 420.224 420.221 424.19 416.764 420.221 419.548 424.297 420.221 424.19 424.297 427.899 407.56 413.769 408.103 418.411 413.769 419.548 418.411 423.785 408.103 418.411 418.041 422.884 418.411 423.785 422.884 428.504 419.548 424.297 423.785 427.722 424.297 427.899 427.722 431.458 423.785 427.722 428.504 434.542 427.722 431.458 434.542 435.018 418.041 422.884 429.519 431.131 422.884 428.504 431.131 431.225 429.519 431.131 439.345 431.205 431.131 431.225 431.205 426.348 428.504 434.542 431.225 435.603 434.542 435.018 435.603 443.497 431.225 435.603 426.348 432.988 435.603 443.497 432.988 450.367 397.463 399.991 397.019 401.136 399.991 400.132 401.136 403.134 397.019 401.136 400.92 404.271 401.136 403.134 404.271 406.493 400.132 400.242 403.134 405.541 400.242 404.573 405.541 407.754 403.134 405.541 406.493 408.438 405.541 407.754 408.438 410.934 400.92 404.271 406.337 408.683 404.271 406.493 408.683 409.422 406.337 408.683 413.769 413.244 408.683 409.422 413.244 412.719 406.493 408.438 409.422 410.845 408.438 410.934 410.845 412.509 409.422 410.845 412.719 413.402 410.845 412.509 413.402 414.084 389.636 395.748 392.425 398.335 395.748 400.802 398.335 402.641 392.425 398.335 396.936 400.609 398.335 402.641 400.609 404.959 400.802 405.347 402.641 407.008 405.347 409.823 407.008 411.22 402.641 407.008 404.959 409.285 407.008 411.22 409.285 413.011 396.936 400.609 399.728 404.196 400.609 404.959 404.196 408.42 399.728 404.196 402.52 406.909 404.196 408.42 406.909 410.36 404.959 409.285 408.42 411.559 409.285 413.011 411.559 414.059 408.42 411.559 410.36 412.683 411.559 414.059 412.683 414.595 409.823 411.898 411.22 412.896 411.898 413.376 412.896 414.595 411.22 412.896 413.011 414.362 412.896 414.595 414.362 415.679 413.376 414.844 414.595 416.178 414.844 416.57 416.178 417.484 414.595 416.178 415.679 417.46 416.178 417.484 417.46 418.398 413.011 414.362 414.059 415.758 414.362 415.679 415.758 416.795 414.059 415.758 414.595 416.449 415.758 416.795 416.449 417.808 415.679 417.46 416.795 418.315 417.46 418.398 418.315 419.446 416.795 418.315 417.808 419.241 418.315 419.446 419.241 420.495 402.52 406.909 403.915 408.277 406.909 410.36 408.277 411.354 403.915 408.277 407.576 410.572 408.277 411.354 410.572 413.204 410.36 412.683 411.354 413.989 412.683 414.595 413.989 415.908 411.354 413.989 413.204 415.373 413.989 415.908 415.373 417.07 407.576 410.572 411.113 413.403 410.572 413.204 413.403 415.228 411.113 413.403 414.65 415.849 413.403 415.228 415.849 417.049 413.204 415.373 415.228 416.86 415.373 417.07 416.86 418.107 415.228 416.86 417.049 418.352 416.86 418.107 418.352 419.655 414.595 416.449 415.908 417.368 416.449 417.808 417.368 418.883 415.908 417.368 417.07 418.552 417.368 418.883 418.552 419.821 417.808 419.241 418.883 420.607 419.241 420.495 420.607 422.184 418.883 420.607 419.821 421.596 420.607 422.184 421.596 423.873 417.07 418.552 418.107 419.678 418.552 419.821 419.678 421.216 418.107 419.678 419.655 421.209 419.678 421.216 421.209 422.763 419.821 421.596 421.216 423.176 421.596 423.873 423.176 424.768 421.216 423.176 422.763 424.213 423.176 424.768 424.213 425.663 414.084 413.679 415.578 415.446 413.679 413.273 415.446 415.661 415.578 415.446 417.071 417.657 415.446 415.661 417.657 417.146 413.273 413.962 415.661 416.459 413.962 414.65 416.459 417.366 415.661 416.459 417.146 417.946 416.459 417.366 417.946 420.082 417.071 417.657 420.203 419.453 417.657 417.146 419.453 419.797 420.203 419.453 422.407 422.999 419.453 419.797 422.999 423.555 417.146 417.946 419.797 421.232 417.946 420.082 421.232 422.354 419.797 421.232 423.555 424.348 421.232 422.354 424.348 424.626 415.49 417.21 418.124 420.752 417.21 418.962 420.752 421.452 418.124 420.752 420.898 421.259 420.752 421.452 421.259 421.62 418.962 420.947 421.452 421.83 420.947 422.407 421.83 422.608 421.452 421.83 421.62 422.421 421.83 422.608 422.421 423.222 422.407 422.999 422.608 423.418 422.999 423.555 423.418 424.118 422.608 423.418 423.222 424.021 423.418 424.118 424.021 424.82 423.555 424.348 424.118 424.768 424.348 424.626 424.768 425.075 424.118 424.768 424.82 425.172 424.768 425.075 425.172 425.524 450.367 445.554 454.365 456.596 445.554 443.09 456.596 456.816 454.365 456.596 470.103 471.237 456.596 456.816 471.237 470.23 443.09 445.293 456.816 457.203 445.293 447.496 457.203 456.118 456.816 457.203 470.23 468.096 457.203 456.118 468.096 464.739 470.103 471.237 486.635 486.374 471.237 470.23 486.374 484.427 486.635 486.374 505.333 501.479 486.374 484.427 501.479 499.197 470.23 468.096 484.427 480.786 468.096 464.739 480.786 473.727 484.427 480.786 499.197 497.653 480.786 473.727 497.653 489.501 505.333 501.479 522.487 516.768 501.479 499.197 516.768 513.553 522.487 516.768 535.958 528.84 516.768 513.553 528.84 524.94 499.197 497.653 513.553 513.391 497.653 489.501 513.391 525.725 513.553 513.391 524.94 525.503 513.391 525.725 525.503 532.548 535.958 528.84 548.022 539.001 528.84 524.94 539.001 532.943 548.022 539.001 557.932 543.732 539.001 532.943 543.732 537.359 524.94 525.503 532.943 529.927 525.503 532.548 529.927 529.926 532.943 529.927 537.359 533.332 529.927 529.926 533.332 524.513 420.224 421.622 424.19 425.572 421.622 423.019 425.572 424.961 424.19 425.572 427.899 429.499 425.572 424.961 429.499 431.099 423.019 424.319 424.961 425.204 424.319 425.619 425.204 428.855 424.961 425.204 431.099 429.977 425.204 428.855 429.977 432.091 440.383 436.454 444.24 441.906 436.454 435.715 441.906 439.992 444.24 441.906 448.096 446.1 441.906 439.992 446.1 444.27 448.096 446.1 449.626 451.078 446.1 444.27 451.078 449.662 449.626 451.078 451.155 454.245 451.078 449.662 454.245 454.781 444.27 443.664 449.662 447.763 443.664 443.057 447.763 446.81 449.662 447.763 454.781 453.624 447.763 446.81 453.624 450.563 443.882 446.847 454.201 456.554 446.847 449.812 456.554 457.808 454.201 456.554 473.802 467.471 456.554 457.808 467.471 464.401 449.812 450.484 457.808 457.038 450.484 451.155 457.038 454.305 457.808 457.038 464.401 460.994 457.038 454.305 460.994 457.18 473.802 467.471 479.893 473.31 467.471 464.401 473.31 468.034 479.893 473.31 483.699 477.779 473.31 468.034 477.779 470.181 464.401 460.994 468.034 464.963 460.994 457.18 464.963 461.164 468.034 464.963 470.181 466.473 464.963 461.164 466.473 463.65 451.155 454.245 454.305 455.119 454.245 454.781 455.119 454.907 454.305 455.119 457.18 456.76 455.119 454.907 456.76 456.04 454.781 453.624 454.907 453.667 453.624 450.563 453.667 451.997 454.907 453.667 456.04 454.933 453.667 451.997 454.933 453.43 457.18 456.76 461.164 459.378 456.76 456.04 459.378 457.811 461.164 459.378 463.65 461.157 459.378 457.811 461.157 459.628 456.04 454.933 457.811 456.175 454.933 453.43 456.175 454.622 457.811 456.175 459.628 458.138 456.175 454.622 458.138 455.815 433.856 433.229 439.327 438.401 433.229 432.601 438.401 437.545 439.327 438.401 444.016 442.726 438.401 437.545 442.726 442.488 444.016 442.726 448.836 446.202 442.726 442.488 446.202 445.122 448.836 446.202 454.146 451.087 446.202 445.122 451.087 448.029 442.488 439.654 445.122 441.967 439.654 436.821 441.967 439.176 445.122 441.967 448.029 444.206 441.967 439.176 444.206 440.383 436.821 435.294 439.176 436.544 435.294 433.768 436.544 434.741 439.176 436.544 440.383 436.454 436.544 434.741 436.454 435.715 341.453 345.118 344.157 346.168 346.479 344.157 343.583 345.4 344.157 346.168 345.4 347.217 470.325 461.389 471.106 462.135 461.389 452.138 462.135 452.734 471.106 462.135 471.639 462.763 462.135 452.734 462.763 453.363 452.138 442.843 452.734 443.554 442.843 432.413 443.554 433.791 452.734 443.554 453.363 444.375 443.554 433.791 444.375 435.248 273.95 272.301 277.709 271.136 272.301 266.612 271.136 270.363 271.136 270.363 274.036 274.441 274.036 274.441 277.05 273.349 274.441 276.987 273.349 277.256 276.987 278.558 277.256 279.805 273.349 277.256 275.262 278.398 277.256 279.805 278.398 281.052 471.639 462.763 471.442 462.63 462.763 453.363 462.63 453.453 471.442 462.63 470.974 462.4 462.63 453.453 462.4 453.551 453.363 444.375 453.453 444.1 444.375 435.248 444.1 435.985 453.453 444.1 453.551 445.223 444.1 435.985 445.223 437.729 432.413 424.568 433.791 426.719 424.568 417.475 426.719 419.457 433.791 426.719 435.248 428.34 426.719 419.457 428.34 421.001 417.475 410.856 419.457 412.545 410.856 404.422 412.545 405.704 419.457 412.5