# vtk DataFile Version 3.0
#This file was generated by the deal.II library on 2016/5/13 at 16:44:21
ASCII
DATASET UNSTRUCTURED_GRID

POINTS 52508 double
187500 -87500 0
200000 -87500 0
187500 -75000 0
200000 -75000 0
187500 -62500 0
200000 -62500 0
187500 -50000 0
200000 -50000 0
175000 -50000 0
187500 -50000 0
175000 -37500 0
187500 -37500 0
187500 -50000 0
200000 -50000 0
187500 -37500 0
200000 -37500 0
131250 -81250 0
137500 -81250 0
131250 -75000 0
137500 -75000 0
137500 -81250 0
143750 -81250 0
137500 -75000 0
143750 -75000 0
168750 -12500 0
175000 -12500 0
168750 -6250 0
175000 -6250 0
137500 -68750 0
143750 -68750 0
137500 -62500 0
143750 -62500 0
131250 -56250 0
137500 -56250 0
131250 -50000 0
137500 -50000 0
137500 -62500 0
143750 -62500 0
137500 -56250 0
143750 -56250 0
175000 -100000 0
181250 -100000 0
175000 -93750 0
181250 -93750 0
181250 -93750 0
187500 -93750 0
181250 -87500 0
187500 -87500 0
193750 -100000 0
200000 -100000 0
193750 -93750 0
200000 -93750 0
187500 -93750 0
193750 -93750 0
187500 -87500 0
193750 -87500 0
193750 -93750 0
200000 -93750 0
193750 -87500 0
200000 -87500 0
181250 -87500 0
187500 -87500 0
181250 -81250 0
187500 -81250 0
175000 -81250 0
181250 -81250 0
175000 -75000 0
181250 -75000 0
181250 -81250 0
187500 -81250 0
181250 -75000 0
187500 -75000 0
162500 -25000 0
168750 -25000 0
162500 -18750 0
168750 -18750 0
168750 -25000 0
175000 -25000 0
168750 -18750 0
175000 -18750 0
162500 -18750 0
168750 -18750 0
162500 -12500 0
168750 -12500 0
168750 -18750 0
175000 -18750 0
168750 -12500 0
175000 -12500 0
175000 -75000 0
181250 -75000 0
175000 -68750 0
181250 -68750 0
181250 -75000 0
187500 -75000 0
181250 -68750 0
187500 -68750 0
175000 -68750 0
181250 -68750 0
175000 -62500 0
181250 -62500 0
181250 -68750 0
187500 -68750 0
181250 -62500 0
187500 -62500 0
156250 -37500 0
162500 -37500 0
156250 -31250 0
162500 -31250 0
162500 -37500 0
168750 -37500 0
162500 -31250 0
168750 -31250 0
168750 -37500 0
175000 -37500 0
168750 -31250 0
175000 -31250 0
162500 -31250 0
168750 -31250 0
162500 -25000 0
168750 -25000 0
175000 -37500 0
181250 -37500 0
175000 -31250 0
181250 -31250 0
181250 -37500 0
187500 -37500 0
181250 -31250 0
187500 -31250 0
175000 -31250 0
181250 -31250 0
175000 -25000 0
181250 -25000 0
181250 -31250 0
187500 -31250 0
181250 -25000 0
187500 -25000 0
187500 -25000 0
193750 -25000 0
187500 -18750 0
193750 -18750 0
150000 -62500 0
156250 -62500 0
150000 -56250 0
156250 -56250 0
156250 -62500 0
162500 -62500 0
156250 -56250 0
162500 -56250 0
150000 -56250 0
156250 -56250 0
150000 -50000 0
156250 -50000 0
156250 -56250 0
162500 -56250 0
156250 -50000 0
162500 -50000 0
162500 -62500 0
168750 -62500 0
162500 -56250 0
168750 -56250 0
168750 -62500 0
175000 -62500 0
168750 -56250 0
175000 -56250 0
162500 -56250 0
168750 -56250 0
162500 -50000 0
168750 -50000 0
168750 -56250 0
175000 -56250 0
168750 -50000 0
175000 -50000 0
187500 -75000 0
193750 -75000 0
187500 -68750 0
193750 -68750 0
193750 -75000 0
200000 -75000 0
193750 -68750 0
200000 -68750 0
187500 -68750 0
193750 -68750 0
187500 -62500 0
193750 -62500 0
193750 -68750 0
200000 -68750 0
193750 -62500 0
200000 -62500 0
175000 -62500 0
181250 -62500 0
175000 -56250 0
181250 -56250 0
181250 -62500 0
187500 -62500 0
181250 -56250 0
187500 -56250 0
175000 -56250 0
181250 -56250 0
175000 -50000 0
181250 -50000 0
181250 -56250 0
187500 -56250 0
181250 -50000 0
187500 -50000 0
150000 -50000 0
156250 -50000 0
150000 -43750 0
156250 -43750 0
156250 -50000 0
162500 -50000 0
156250 -43750 0
162500 -43750 0
150000 -43750 0
156250 -43750 0
150000 -37500 0
156250 -37500 0
156250 -43750 0
162500 -43750 0
156250 -37500 0
162500 -37500 0
162500 -50000 0
168750 -50000 0
162500 -43750 0
168750 -43750 0
168750 -50000 0
175000 -50000 0
168750 -43750 0
175000 -43750 0
162500 -43750 0
168750 -43750 0
162500 -37500 0
168750 -37500 0
168750 -43750 0
175000 -43750 0
168750 -37500 0
175000 -37500 0
187500 -37500 0
193750 -37500 0
187500 -31250 0
193750 -31250 0
193750 -37500 0
200000 -37500 0
193750 -31250 0
200000 -31250 0
187500 -31250 0
193750 -31250 0
187500 -25000 0
193750 -25000 0
193750 -31250 0
200000 -31250 0
193750 -25000 0
200000 -25000 0
0 -100000 0
3125 -100000 0
0 -96875 0
3125 -96875 0
0 -93750 0
3125 -93750 0
0 -90625 0
3125 -90625 0
12500 -100000 0
15625 -100000 0
12500 -96875 0
15625 -96875 0
15625 -100000 0
18750 -100000 0
15625 -96875 0
18750 -96875 0
15625 -93750 0
18750 -93750 0
15625 -90625 0
18750 -90625 0
40625 -78125 0
43750 -78125 0
40625 -75000 0
43750 -75000 0
43750 -78125 0
46875 -78125 0
43750 -75000 0
46875 -75000 0
40625 -75000 0
43750 -75000 0
40625 -71875 0
43750 -71875 0
43750 -75000 0
46875 -75000 0
43750 -71875 0
46875 -71875 0
40625 -65625 0
43750 -65625 0
40625 -62500 0
43750 -62500 0
43750 -65625 0
46875 -65625 0
43750 -62500 0
46875 -62500 0
53125 -100000 0
56250 -100000 0
53125 -96875 0
56250 -96875 0
81250 -100000 0
84375 -100000 0
81250 -96875 0
84375 -96875 0
81250 -84375 0
84375 -84375 0
81250 -81250 0
84375 -81250 0
84375 -84375 0
87500 -84375 0
84375 -81250 0
87500 -81250 0
78125 -81250 0
81250 -81250 0
78125 -78125 0
81250 -78125 0
81250 -81250 0
84375 -81250 0
81250 -78125 0
84375 -78125 0
106250 -81250 0
109375 -81250 0
106250 -78125 0
109375 -78125 0
131250 -100000 0
134375 -100000 0
131250 -96875 0
134375 -96875 0
131250 -96875 0
134375 -96875 0
131250 -93750 0
134375 -93750 0
140625 -100000 0
143750 -100000 0
140625 -96875 0
143750 -96875 0
140625 -96875 0
143750 -96875 0
140625 -93750 0
143750 -93750 0
143750 -100000 0
146875 -100000 0
143750 -96875 0
146875 -96875 0
143750 -96875 0
146875 -96875 0
143750 -93750 0
146875 -93750 0
140625 -93750 0
143750 -93750 0
140625 -90625 0
143750 -90625 0
140625 -90625 0
143750 -90625 0
140625 -87500 0
143750 -87500 0
143750 -93750 0
146875 -93750 0
143750 -90625 0
146875 -90625 0
143750 -90625 0
146875 -90625 0
143750 -87500 0
146875 -87500 0
146875 -90625 0
150000 -90625 0
146875 -87500 0
150000 -87500 0
134375 -87500 0
137500 -87500 0
134375 -84375 0
137500 -84375 0
131250 -84375 0
134375 -84375 0
131250 -81250 0
134375 -81250 0
134375 -84375 0
137500 -84375 0
134375 -81250 0
137500 -81250 0
128125 -81250 0
131250 -81250 0
128125 -78125 0
131250 -78125 0
128125 -78125 0
131250 -78125 0
128125 -75000 0
131250 -75000 0
93750 -56250 0
96875 -56250 0
93750 -53125 0
96875 -53125 0
96875 -56250 0
100000 -56250 0
96875 -53125 0
100000 -53125 0
93750 -53125 0
96875 -53125 0
93750 -50000 0
96875 -50000 0
96875 -53125 0
100000 -53125 0
96875 -50000 0
100000 -50000 0
137500 -87500 0
140625 -87500 0
137500 -84375 0
140625 -84375 0
140625 -87500 0
143750 -87500 0
140625 -84375 0
143750 -84375 0
137500 -84375 0
140625 -84375 0
137500 -81250 0
140625 -81250 0
140625 -84375 0
143750 -84375 0
140625 -81250 0
143750 -81250 0
143750 -87500 0
146875 -87500 0
143750 -84375 0
146875 -84375 0
146875 -87500 0
150000 -87500 0
146875 -84375 0
150000 -84375 0
143750 -84375 0
146875 -84375 0
143750 -81250 0
146875 -81250 0
68750 -50000 0
71875 -50000 0
68750 -46875 0
71875 -46875 0
71875 -50000 0
75000 -50000 0
71875 -46875 0
75000 -46875 0
68750 -46875 0
71875 -46875 0
68750 -43750 0
71875 -43750 0
71875 -46875 0
75000 -46875 0
71875 -43750 0
75000 -43750 0
143750 -81250 0
146875 -81250 0
143750 -78125 0
146875 -78125 0
143750 -78125 0
146875 -78125 0
143750 -75000 0
146875 -75000 0
121875 -75000 0
125000 -75000 0
121875 -71875 0
125000 -71875 0
109375 -59375 0
112500 -59375 0
109375 -56250 0
112500 -56250 0
112500 -59375 0
115625 -59375 0
112500 -56250 0
115625 -56250 0
115625 -59375 0
118750 -59375 0
115625 -56250 0
118750 -56250 0
118750 -59375 0
121875 -59375 0
118750 -56250 0
121875 -56250 0
121875 -59375 0
125000 -59375 0
121875 -56250 0
125000 -56250 0
140625 -6250 0
143750 -6250 0
140625 -3125 0
143750 -3125 0
140625 -3125 0
143750 -3125 0
140625 0 0
143750 0 0
143750 -6250 0
146875 -6250 0
143750 -3125 0
146875 -3125 0
143750 -3125 0
146875 -3125 0
143750 0 0
146875 0 0
75000 -50000 0
78125 -50000 0
75000 -46875 0
78125 -46875 0
78125 -50000 0
81250 -50000 0
78125 -46875 0
81250 -46875 0
75000 -46875 0
78125 -46875 0
75000 -43750 0
78125 -43750 0
78125 -46875 0
81250 -46875 0
78125 -43750 0
81250 -43750 0
81250 -50000 0
84375 -50000 0
81250 -46875 0
84375 -46875 0
84375 -50000 0
87500 -50000 0
84375 -46875 0
87500 -46875 0
81250 -46875 0
84375 -46875 0
81250 -43750 0
84375 -43750 0
84375 -46875 0
87500 -46875 0
84375 -43750 0
87500 -43750 0
81250 -43750 0
84375 -43750 0
81250 -40625 0
84375 -40625 0
84375 -43750 0
87500 -43750 0
84375 -40625 0
87500 -40625 0
81250 -40625 0
84375 -40625 0
81250 -37500 0
84375 -37500 0
84375 -40625 0
87500 -40625 0
84375 -37500 0
87500 -37500 0
112500 -100000 0
115625 -100000 0
112500 -96875 0
115625 -96875 0
115625 -100000 0
118750 -100000 0
115625 -96875 0
118750 -96875 0
112500 -96875 0
115625 -96875 0
112500 -93750 0
115625 -93750 0
115625 -96875 0
118750 -96875 0
115625 -93750 0
118750 -93750 0
112500 -93750 0
115625 -93750 0
112500 -90625 0
115625 -90625 0
115625 -93750 0
118750 -93750 0
115625 -90625 0
118750 -90625 0
112500 -90625 0
115625 -90625 0
112500 -87500 0
115625 -87500 0
115625 -90625 0
118750 -90625 0
115625 -87500 0
118750 -87500 0
118750 -93750 0
121875 -93750 0
118750 -90625 0
121875 -90625 0
121875 -93750 0
125000 -93750 0
121875 -90625 0
125000 -90625 0
118750 -90625 0
121875 -90625 0
118750 -87500 0
121875 -87500 0
121875 -90625 0
125000 -90625 0
121875 -87500 0
125000 -87500 0
112500 -87500 0
115625 -87500 0
112500 -84375 0
115625 -84375 0
115625 -87500 0
118750 -87500 0
115625 -84375 0
118750 -84375 0
112500 -84375 0
115625 -84375 0
112500 -81250 0
115625 -81250 0
115625 -84375 0
118750 -84375 0
115625 -81250 0
118750 -81250 0
112500 -81250 0
115625 -81250 0
112500 -78125 0
115625 -78125 0
115625 -81250 0
118750 -81250 0
115625 -78125 0
118750 -78125 0
112500 -78125 0
115625 -78125 0
112500 -75000 0
115625 -75000 0
115625 -78125 0
118750 -78125 0
115625 -75000 0
118750 -75000 0
118750 -81250 0
121875 -81250 0
[...]
POINT_DATA 52508
SCALARS velocity double 1
LOOKUP_TABLE default
-637.315 -634.575 -639.606 -639.443 -633.253 -628.801 -633.273 -633.098 -635.349 -633.273 -631.105 -632.287 -633.273 -633.098 -632.287 -635.688 -651.367 -656.749 -657.593 -656.953 -656.749 -661.549 -656.953 -659.777 -613.174 -615.738 -606.133 -603.632 -653.917 -654.657 -654.165 -654.498 -657.801 -657.799 -664.811 -663.641 -654.165 -654.498 -657.799 -655.992 -639.477 -636.406 -640.527 -637.032 -637.032 -634.049 -638.473 -637.315 -625.45 -620.941 -630.286 -628.014 -634.049 -630.286 -637.315 -635.945 -630.286 -628.014 -635.945 -634.575 -638.473 -637.315 -639.461 -638.461 -639.837 -639.461 -637.675 -638.182 -639.461 -638.461 -638.182 -639.606 -624.011 -625.92 -617.167 -619.841 -625.92 -628.236 -619.841 -623.474 -617.167 -619.841 -611.875 -613.174 -619.841 -623.474 -613.174 -615.738 -637.675 -638.182 -640.976 -637.729 -638.182 -639.606 -637.729 -636.044 -640.976 -637.729 -638.497 -637.806 -637.729 -636.044 -637.806 -633.253 -635.257 -632.337 -630.662 -628.734 -632.337 -630.716 -628.734 -630.73 -630.716 -631.105 -630.73 -630.154 -628.734 -630.73 -624.011 -625.92 -631.105 -631.696 -630.154 -631.327 -631.696 -632.287 -631.327 -632.48 -630.154 -631.327 -628.236 -630.641 -631.327 -632.48 -630.641 -630.86 -630.86 -634.282 -628.279 -632.109 -651.865 -648.963 -650.977 -643.894 -648.963 -648.3 -643.894 -641.541 -650.977 -643.894 -646.69 -641.822 -643.894 -641.541 -641.822 -638.478 -648.3 -641.517 -641.541 -639.065 -641.517 -638.497 -639.065 -636.918 -641.541 -639.065 -638.478 -636.748 -639.065 -636.918 -636.748 -635.349 -639.606 -639.524 -636.044 -633.572 -639.524 -639.443 -633.572 -633.146 -636.044 -633.572 -633.253 -631.027 -633.572 -633.146 -631.027 -628.801 -638.497 -637.806 -636.918 -635.078 -637.806 -633.253 -635.078 -633.263 -636.918 -635.078 -635.349 -634.311 -635.078 -633.263 -634.311 -633.273 -646.69 -641.822 -645.138 -639.692 -641.822 -638.478 -639.692 -636.188 -645.138 -639.692 -645.099 -635.257 -639.692 -636.188 -635.257 -632.337 -638.478 -636.748 -636.188 -634.805 -636.748 -635.349 -634.805 -633.227 -636.188 -634.805 -632.337 -630.716 -634.805 -633.227 -630.716 -631.105 -632.287 -633.987 -632.48 -634.437 -633.987 -635.688 -634.437 -636.355 -632.48 -634.437 -630.86 -634.282 -634.437 -636.355 -634.282 -637.242 -755.813 -719.657 -758.3 -720.211 -759.219 -722.62 -763.259 -737.344 -661.639 -633.341 -663.028 -637.396 -633.341 -602.833 -637.396 -607.365 -641.285 -613.693 -644.544 -615.636 -471.813 -479.575 -485.933 -495.457 -479.575 -484.921 -495.457 -503.47 -485.933 -495.457 -505.277 -515.364 -495.457 -503.47 -515.364 -518.548 -526.711 -537.45 -537.508 -547.144 -537.45 -549.757 -547.144 -556.915 -367.034 -386.286 -386.925 -404.427 -478.655 -501.388 -504.529 -525.3 -586.19 -601.449 -596.708 -611.142 -601.449 -619.954 -611.142 -632.954 -570.031 -596.708 -578.804 -600.802 -596.708 -611.142 -600.802 -621.869 -708.534 -707.231 -710.815 -709.527 -683.135 -687.612 -680.169 -686.5 -680.169 -686.5 -680.607 -685.525 -679.207 -672.499 -673.227 -672.747 -673.227 -672.747 -668.693 -668.252 -672.499 -677.262 -672.747 -673.414 -672.747 -673.414 -668.252 -670.499 -668.693 -668.252 -662.606 -664.132 -662.606 -664.132 -655.721 -662.105 -668.252 -670.499 -664.132 -662.383 -664.132 -662.383 -662.105 -663.13 -662.383 -656.431 -663.13 -662.482 -660.594 -654.817 -652.693 -656.647 -654.14 -652.693 -651.367 -654.058 -652.693 -656.647 -654.058 -656.749 -653.118 -651.367 -654.407 -654.48 -654.407 -654.48 -656.553 -657.593 -713.32 -709.977 -705.346 -704.37 -709.977 -703.621 -704.37 -703.739 -705.346 -704.37 -702.325 -699.253 -704.37 -703.739 -699.253 -697.207 -654.817 -655.721 -656.647 -658.299 -655.721 -662.105 -658.299 -661.873 -656.647 -658.299 -656.749 -659.149 -658.299 -661.873 -659.149 -661.549 -662.105 -663.13 -661.873 -668.849 -663.13 -662.482 -668.849 -668.18 -661.873 -668.849 -661.549 -667.15 -666.637 -677.31 -655.636 -666.994 -677.31 -687.806 -666.994 -677.894 -655.636 -666.994 -645.317 -657.562 -666.994 -677.894 -657.562 -667.792 -661.549 -667.15 -660.663 -664.85 -660.663 -664.85 -659.777 -658.208 -678.239 -665.116 -677.674 -669.994 -677.415 -668.455 -671.076 -671.406 -668.455 -661.877 -671.406 -667.306 -661.877 -656.826 -667.306 -663.283 -656.826 -653.3 -663.283 -659.761 -653.3 -654.33 -659.761 -656.44 -562.788 -561.589 -556.086 -559.628 -556.086 -559.628 -544.529 -559.981 -561.589 -571.766 -559.628 -564.097 -559.628 -564.097 -559.981 -555.625 -687.806 -694.535 -677.894 -682.088 -694.535 -700.816 -682.088 -686.8 -677.894 -682.088 -667.792 -670.826 -682.088 -686.8 -670.826 -670.232 -700.816 -705.821 -686.8 -693.573 -705.821 -712.29 -693.573 -702.861 -686.8 -693.573 -670.232 -677.84 -693.573 -702.861 -677.84 -691.555 -670.232 -677.84 -655.702 -668.941 -677.84 -691.555 -668.941 -680.928 -655.702 -668.941 -645.298 -659.91 -668.941 -680.928 -659.91 -668.887 -674.711 -683.491 -676.861 -686.626 -683.491 -701.019 -686.626 -697.625 -676.861 -686.626 -681.208 -687.428 -686.626 -697.625 -687.428 -690.925 -681.208 -687.428 -692.779 -693.104 -687.428 -690.925 -693.104 -692.873 -692.779 -693.104 -703.315 -698.841 -693.104 -692.873 -698.841 -697.69 -690.925 -679.844 -692.873 -684.955 -679.844 -672.839 -684.955 -677.482 -692.873 -684.955 -697.69 -689.011 -684.955 -677.482 -689.011 -678.922 -703.315 -698.841 -703.536 -700.409 -698.841 -697.69 -700.409 -697.672 -703.536 -700.409 -704.818 -701.587 -700.409 -697.672 -701.587 -695.816 -704.818 -701.587 -705.396 -699.405 -701.587 -695.816 -699.405 -693.376 -705.396 -699.405 -703.5 -700.298 -699.405 -693.376 -700.298 -690.451 -695.816 -675.182 -693.376 -679.278 -675.182 -660.635 -679.278 -663.05 -693.376 -679.278 -690.451 -678.239 -679.278 -663.05 -678.239 -665.116 -725.039 -712.886 -724.615 -716.303 -712.886 -705.676 -716.303 -708.179 -724.615 -716.303 -724.51 -718.484 -716.303 -708.179 -718.484 -710.837 -705.676 -701.357 -708.179 -703.152 -701.357 -703.5 -703.152 -697.423 -708.179 -703.152 -710.837 -705.341 -703.152 -697.423 -705.341 -696.743 -685.171 -669.051 -693.724 -673.748 -669.051 -661.291 -673.748 -655.762 -693.724 -673.748 -703.798 -678.896 -673.748 -655.762 -678.896 -652.765 -690.904 -685.324 -694.735 -688.278 -685.324 -686.297 -688.278 -682.774 -694.735 -688.278 -699.947 -693.235 -688.278 -682.774 -693.235 -676.07 -676.07 -668.417 -685.978 -682.537 -668.417 -670.928 -682.537 -678.661 -685.978 -682.537 -700.471 -697.438 -682.537 -678.661 -697.438 -685.171 -712.29 -707.598 -702.861 -700.789 -707.598 -702.325 -700.789 -701.982 -702.861 -700.789 -691.555 -697.682 -700.789 -701.982 -697.682 -699.501 -702.325 -699.253 -701.982 -698.504 -699.253 -697.207 -698.504 -693.268 -701.982 -698.504 -699.501 -696.052 -698.504 -693.268 -696.052 -694.235 -703.621 -688.829 -703.739 -691.055 -688.829 -677.315 -691.055 -681.708 -703.739 -691.055 -697.207 -690.643 -691.055 -681.708 -690.643 -683.988 -677.315 -671.076 -681.708 -675.956 -671.076 -671.406 -675.956 -671.034 -681.708 -675.956 -683.988 -677.81 -675.956 -671.034 -677.81 -672.465 -671.406 -667.306 -671.034 -668.326 -667.306 -663.283 -668.326 -663.783 -671.034 -668.326 -672.465 -668.006 -668.326 -663.783 -668.006 -663.086 -663.283 -659.761 -663.783 -659.34 -659.761 -656.44 -659.34 -655.781 -663.783 -659.34 -663.086 -660.129 -659.34 -655.781 -660.129 -659.866 -669.527 -655.214 -662.703 -650.515 -655.214 -644.138 -650.515 -641.376 -662.703 -650.515 -659.507 -648.696 -650.515 -641.376 -648.696 -638.636 -644.138 -634.116 -641.376 -633.65 -634.116 -628.162 -633.65 -626.838 -641.376 -633.65 -638.636 -632.12 -633.65 -626.838 -632.12 -626.909 -659.507 -648.696 -656.431 -651.378 -648.696 -638.636 -651.378 -641.282 -656.431 -651.378 -662.482 -654.412 -651.378 -641.282 -654.412 -651.374 -638.636 -632.12 -641.282 -637.73 -632.12 -626.909 -637.73 -632.604 -641.282 -637.73 -651.374 -646.612 -637.73 -632.604 -646.612 -639.778 -662.482 -654.412 -668.18 -658.528 -654.412 -651.374 -658.528 -652.413 -668.18 -658.528 -666.152 -661.144 -658.528 -652.413 -661.144 -652.067 -651.374 -646.612 -652.413 -645.45 -646.612 -639.778 -645.45 -636.921 -652.413 -645.45 -652.067 -645.191 -645.45 -636.921 -645.191 -636.111 -666.152 -661.144 -660.399 -656.28 -661.144 -652.067 -656.28 -653.291 -660.399 -656.28 -655.416 -655.637 -656.28 -653.291 -655.637 -653.619 -652.067 -645.191 -653.291 -648.835 -645.191 -636.111 -648.835 -638.281 -653.291 -648.835 -653.619 -648.776 -648.835 -638.281 -648.776 -643.175 -697.207 -690.643 -693.268 -689.875 -690.643 -683.988 -689.875 -685.661 -693.268 -689.875 -694.235 -692.683 -689.875 -685.661 -692.683 -689.624 -683.988 -677.81 -685.661 -681.251 -677.81 -672.465 -681.251 -676.566 -685.661 -681.251 -689.624 -686.477 -681.251 -676.566 -686.477 -680.827 -616.527 -623.478 -608.661 -616.661 -623.478 -623.7 -616.661 -618.214 -608.661 -616.661 -611.258 -616.244 -616.661 -618.214 -616.244 -615.586 -678.59 -669.446 -680.913 -674.235 -669.446 -664.095 -674.235 -671.111 -680.913 -674.235 -683.789 -682.849 -674.235 -671.111 -682.849 -681.71 -664.095 -660.702 -671.111 -670.17 -660.702 -657.217 -670.17 -662.041 -671.111 -670.17 -681.71 -688.202 -670.17 -662.041 -688.202 -668.464 -657.217 -652.693 -662.041 -651.033 -652.693 -645.099 -651.033 -641.824 -662.041 -651.033 -668.464 -644.693 -651.033 -641.824 -644.693 -636.492 -668.464 -644.693 -648.52 -635.031 -644.693 -636.492 -635.031 -629.655 -648.52 -635.031 -616.527 -623.478 -635.031 -629.655 -623.478 -623.7 -623.7 -622.152 -618.214 -620.296 -622.152 -622.111 -620.296 -621.089 -618.214 -620.296 -615.586 -618.322 -620.296 -621.089 -618.322 -619.511 -622.111 -622.947 -621.089 -621.652 -622.947 -624.011 -621.652 -620.589 -621.089 -621.652 -619.511 -617.219 -621.652 -620.589 -617.219 -617.167 -615.586 -618.322 -606.201 -609.453 -618.322 -619.511 -609.453 -611.278 -606.201 -609.453 -602.908 -602.759 -609.453 -611.278 -602.759 -606.101 -619.511 -617.219 -611.278 -612.746 -617.219 -617.167 -612.746 -614.521 -611.278 -612.746 -606.101 -607.672 -612.746 -614.521 -607.672 -611.875 -628.162 -632.631 -626.838 -631.684 -632.631 -634.705 -631.684 -635.637 -626.838 -631.684 -626.909 -632.778 -631.684 -635.637 -632.778 -637.983 -634.705 -636.208 -635.637 -640.199 -636.208 -639.477 -640.199 -640.002 -635.637 -640.199 -637.983 -639.942 -640.199 -640.002 -639.942 -640.527 -626.909 -632.778 -632.604 -629.269 -632.778 -637.983 -629.269 -636.243 -632.604 -629.269 -639.778 -639.341 -629.269 -636.243 -639.341 -636.493 -637.983 -639.942 -636.243 -638.718 -639.942 -640.527 -638.718 -639.935 -636.243 -638.718 -636.493 -639.697 -638.718 -639.935 -639.697 -644.259 -602.908 -602.759 -592.893 -596.451 -602.759 -606.101 -596.451 -600.81 -592.893 -596.451 -580.455 -588.569 -596.451 -600.81 -588.569 -596.22 -606.101 -607.672 -600.81 -605.48 -607.672 -611.875 -605.48 -609.31 -600.81 -605.48 -596.22 -603.421 -605.48 -609.31 -603.421 -608.296 -580.455 -588.569 -570.784 -580.767 -588.569 -596.22 -580.767 -589.89 -570.784 -580.767 -558.431 -576.254 -580.767 -589.89 -576.254 -587.342 -596.22 -603.421 -589.89 -599.446 -603.421 -608.296 -599.446 -606.43 -589.89 -599.446 -587.342 -598.194 -599.446 -606.43 -598.194 -605.528 -639.778 -639.341 -636.921 -638.362 -639.341 -636.493 -638.362 -638.322 -636.921 -638.362 -636.111 -638.309 -638.362 -638.322 -638.309 -641.139 -636.493 -639.697 -638.322 -639.816 -639.697 -644.259 -639.816 -644.005 -638.322 -639.816 -641.139 -639.914 -639.816 -644.005 -639.914 -639.837 -636.111 -638.309 -638.281 -643.205 -638.309 -641.139 -643.205 -643.987 -638.281 -643.205 -643.175 -646.245 -643.205 -643.987 -646.245 -643.983 -641.139 -639.914 -643.987 -641.491 -639.914 -639.837 -641.491 -638.756 -643.987 -641.491 -643.983 -641.925 -641.491 -638.756 -641.925 -637.675 -672.465 -668.006 -676.566 -672.772 -668.006 -663.086 -672.772 -669.302 -676.566 -672.772 -680.827 -676.461 -672.772 -669.302 -676.461 -673.886 -663.086 -660.129 -669.302 -667.086 -660.129 -659.866 -667.086 -665.318 -669.302 -667.086 -673.886 -671.561 -667.086 -665.318 -671.561 -668.982 -680.827 -676.461 -683.1 -679.535 -676.461 -673.886 -679.535 -676.012 -683.1 -679.535 -684.599 -683.07 -679.535 -676.012 -683.07 -678.416 -673.886 -671.561 -676.012 -673.495 -671.561 -668.982 -673.495 -677.032 -676.012 -673.495 -678.416 -676.477 -673.495 -677.032 -676.477 -682.754 -639.242 -613.099 -640.364 -623.581 -613.099 -603.319 -623.581 -610.652 -640.364 -623.581 -638.97 -626.75 -623.581 -610.652 -626.75 -616.148 -603.319 -602.222 -610.652 -607.502 -602.222 -585.174 -607.502 -600.501 -610.652 -607.502 -616.148 -612.227 -607.502 -600.501 -612.227 -610.121 -638.97 -626.75 -622.319 -620.59 -626.75 -616.148 -620.59 -616.644 -622.319 -620.59 -605.268 -614.924 -620.59 -616.644 -614.924 -619.511 -616.148 -612.227 -616.644 -613.323 -612.227 -610.121 -613.323 -610.823 -616.644 -613.323 -619.511 -614.298 -613.323 -610.823 -614.298 -607.702 -659.866 -663.795 -665.318 -666.344 -663.795 -664.811 -666.344 -666.199 -665.318 -666.344 -668.982 -669.988 -666.344 -666.199 -669.988 -669.776 -664.811 -664.226 -666.199 -664.963 -664.226 -663.641 -664.963 -662.55 -666.199 -664.963 -669.776 -667.071 -664.963 -662.55 -667.071 -662.232 -668.982 -669.988 -677.032 -675.928 -669.988 -669.776 -675.928 -672.967 -677.032 -675.928 -682.754 -683.861 -675.928 -672.967 -683.861 -678.59 -669.776 -667.071 -672.967 -668.32 -667.071 -662.232 -668.32 -663.533 -672.967 -668.32 -678.59 -669.446 -668.32 -663.533 -669.446 -664.095 -663.641 -661.996 -662.55 -659.724 -661.996 -658.784 -659.724 -654.89 -662.55 -659.724 -662.232 -656.847 -659.724 -654.89 -656.847 -653.922 -658.784 -653.731 -654.89 -650.817 -653.731 -646.69 -650.817 -645.914 -654.89 -650.817 -653.922 -650.987 -650.817 -645.914 -650.987 -645.138 -662.232 -656.847 -663.533 -658.956 -656.847 -653.922 -658.956 -654.788 -663.533 -658.956 -664.095 -660.702 -658.956 -654.788 -660.702 -657.217 -653.922 -650.987 -654.788 -651.073 -650.987 -645.138 -651.073 -645.119 -654.788 -651.073 -657.217 -652.693 -651.073 -645.119 -652.693 -645.099 -611.875 -612.524 -609.31 -609.719 -612.524 -613.174 -609.719 -609.653 -609.31 -609.719 -608.296 -607.548 -609.719 -609.653 -607.548 -606.133 -608.296 -607.548 -606.43 -606.089 -607.548 -606.133 -606.089 -604.707 -606.43 -606.089 -605.528 -605.96 -606.089 -604.707 -605.96 -603.904 -606.133 -604.882 -604.707 -602.04 -604.882 -603.632 -602.04 -596.005 -604.707 -602.04 -603.904 -599.398 -602.04 -596.005 -599.398 -592.308 -665.116 -656.553 -669.994 -661.808 -656.553 -657.593 -661.808 -658.318 -669.994 -661.808 -666.483 -662.329 -661.808 -658.318 -662.329 -658.365 -657.593 -657.273 -658.318 -656.931 -657.273 -656.953 -656.931 -654.898 -658.318 -656.931 -658.365 -655.413 -656.931 -654.898 -655.413 -653.917 -666.483 -662.329 -662.231 -659.861 -662.329 -658.365 -659.861 -656.226 -662.231 -659.861 -660.65 -657.738 -659.861 -656.226 -657.738 -655.262 -658.365 -655.413 -656.226 -654.728 -655.413 -653.917 -654.728 -654.041 -656.226 -654.728 -655.262 -655.268 -654.728 -654.041 -655.268 -654.165 -656.953 -658.365 -654.898 -656.255 -658.365 -659.777 -656.255 -656.525 -654.898 -656.255 -653.917 -654.287 -656.255 -656.525 -654.287 -654.657 -659.777 -658.208 -656.525 -656.036 -658.208 -655.416 -656.036 -655.631 -656.525 -656.036 -654.657 -654.505 -656.036 -655.631 -654.505 -654.04 -654.657 -654.505 -654.578 -654.136 -654.505 -654.04 -654.136 -653.486 -654.578 -654.136 -654.498 -653.578 -654.136 -653.486 -653.578 -651.865 -660.65 -657.738 -654.33 -656.939 -657.738 -655.262 -656.939 -656.393 -654.33 -656.939 -656.44 -657.435 -656.939 -656.393 -657.435 -657.801 -655.262 -655.268 -656.393 -656.536 -655.268 -654.165 -656.536 -655.982 -656.393 -656.536 -657.801 -657.8 -656.536 -655.982 -657.8 -657.799 -656.44 -657.435 -655.781 -659.609 -657.435 -657.801 -659.609 -661.306 -655.781 -659.609 -659.866 -663.795 -659.609 -661.306 -663.795 -664.811 -654.498 -653.578 -655.245 -653.369 -653.578 -651.865 -653.369 -651.421 -655.245 -653.369 -655.992 -653.572 -653.369 -651.421 -653.572 -650.977 -657.799 -656.895 -660.72 -659.1 -656.895 -655.992 -659.1 -656.834 -660.72 -659.1 -663.641 -661.996 -659.1 -656.834 -661.996 -658.784 -655.992 -653.572 -656.834 -653.334 -653.572 -650.977 -653.334 -648.833 -656.834 -653.334 -658.784 -653.731 -653.334 -648.833 -653.731 -646.69 -636.406 -634.701 -636.719 -635.258 -634.701 -633.792 -635.258 -634.098 -636.719 -635.258 -637.032 -635.54 -635.258 -634.098 -635.54 -634.049 -640.527 -638.779 -639.935 -640.033 -638.779 -637.032 -640.033 -637.752 -639.935 -640.033 -644.259 -640.785 -640.033 -637.752 -640.785 -638.473 -633.792 -630.378 -634.098 -630.859 -630.378 -625.45 -630.859 -627.868 -634.098 -630.859 -634.049 -632.168 -630.859 -627.868 -632.168 -630.286 -644.259 -640.785 -644.005 -640.894 -640.785 -638.473 -640.894 -638.967 -644.005 -640.894 -639.837 -639.649 -640.894 -638.967 -639.649 -639.461 -655.416 -655.637 -655.631 -653.637 -655.637 -653.619 -653.637 -652.205 -655.631 -653.637 -654.04 -652.681 -653.637 -652.205 -652.681 -650.429 -653.619 -648.776 -652.205 -649.31 -648.776 -643.175 -649.31 -646.064 -652.205 -649.31 -650.429 -647.248 -649.31 -646.064 -647.248 -645.987 -654.04 -652.681 -653.486 -651.298 -652.681 -650.429 -651.298 -648.558 -653.486 -651.298 -651.865 -650.414 -651.298 -648.558 -650.414 -648.963 -650.429 -647.248 -648.558 -647.46 -647.248 -645.987 -647.46 -647.039 -648.558 -647.46 -648.963 -648.631 -647.46 -647.039 -648.631 -648.3 -643.175 -646.245 -646.064 -645.075 -646.245 -643.983 -645.075 -644.422 -646.064 -645.075 -645.987 -645.683 -645.075 -644.422 -645.683 -644.848 -643.983 -641.925 -644.422 -642.198 -641.925 -637.675 -642.198 -639.326 -644.422 -642.198 -644.848 -643.192 -642.198 -639.326 -643.192 -640.976 -645.987 -645.683 -647.039 -645.456 -645.683 -644.848 -645.456 -644.33 -647.039 -645.456 -648.3 -644.909 -645.456 -644.33 -644.909 -641.517 -644.848 -643.192 -644.33 -642.17 -643.192 -640.976 -642.17 -639.737 -644.33 -642.17 -641.517 -640.008 -642.17 -639.737 -640.008 -638.497 -645.099 -640.178 -641.824 -637.076 -640.178 -635.257 -637.076 -632.96 -641.824 -637.076 -636.492 -632.923 -637.076 -632.96 -632.923 -630.662 -636.492 -632.923 -629.655 -627.984 -632.923 -630.662 -627.984 -626.8 -629.655 -627.984 -623.7 -622.152 -627.984 -626.8 -622.152 -622.111 -630.662 -629.698 -626.8 -626.674 -629.698 -628.734 -626.674 -626.372 -626.8 -626.674 -622.111 -622.947 -626.674 -626.372 -622.947 -624.011 -630.73 -630.442 -628.325 -628.66 -630.442 -630.154 -628.66 -629.195 -628.325 -628.66 -625.92 -627.078 -628.66 -629.195 -627.078 -628.236 -628.236 -629.438 -625.855 -626.74 -629.438 -630.641 -626.74 -626.987 -625.855 -626.74 -623.474 -623.548 -626.74 -626.987 -623.548 -624.015 -630.641 -630.751 -626.987 -628.195 -630.751 -630.86 -628.195 -629.57 -626.987 -628.195 -624.015 -625.417 -628.195 -629.57 -625.417 -628.279 -623.474 -623.548 -619.606 -619.744 -623.548 -624.015 -619.744 -619.859 -619.606 -619.744 -615.738 -616.435 -619.744 -619.859 -616.435 -616.991 -624.015 -625.417 -619.859 -621.762 -625.417 -628.279 -621.762 -622.649 -619.859 -621.762 -616.991 -619.1 -621.762 -622.649 -619.1 -618.319 -634.282 -635.762 -633.196 -633.904 -635.762 -637.242 -633.904 -632.121 -633.196 -633.904 -632.109 -628.425 -633.904 -632.121 -628.425 -626.76 -628.279 -630.194 -622.649 -624.197 -630.194 -632.109 -624.197 -625.005 -622.649 -624.197 -618.319 -618.714 -624.197 -625.005 -618.714 -620.557 -632.109 -628.425 -625.005 -624.868 -628.425 -626.76 -624.868 -625.115 -625.005 -624.868 -620.557 -621.138 -624.868 -625.115 -621.138 -621.832 -615.738 -616.435 -609.685 -609.027 -616.435 -616.991 -609.027 -608.255 -609.685 -609.027 -603.632 -601.711 -609.027 -608.255 -601.711 -599.552 -616.991 -619.1 -608.255 -608.221 -619.1 -618.319 -608.221 -608.132 -608.255 -608.221 -599.552 -598.173 -608.221 -608.132 -598.173 -598.858 -603.632 -601.711 -596.005 -595.124 -601.711 -599.552 -595.124 -594.849 -596.005 -595.124 -592.308 -589.739 -595.124 -594.849 -589.739 -589.934 -599.552 -598.173 -594.849 -592.451 -598.173 -598.858