# vtk DataFile Version 3.0
#This file was generated by the deal.II library on 2016/5/13 at 16:44:20
ASCII
DATASET UNSTRUCTURED_GRID

POINTS 26120 double
162500 -25000 0
175000 -25000 0
162500 -12500 0
175000 -12500 0
150000 -62500 0
162500 -62500 0
150000 -50000 0
162500 -50000 0
162500 -62500 0
175000 -62500 0
162500 -50000 0
175000 -50000 0
187500 -75000 0
200000 -75000 0
187500 -62500 0
200000 -62500 0
175000 -62500 0
187500 -62500 0
175000 -50000 0
187500 -50000 0
187500 -62500 0
200000 -62500 0
187500 -50000 0
200000 -50000 0
150000 -50000 0
162500 -50000 0
150000 -37500 0
162500 -37500 0
162500 -50000 0
175000 -50000 0
162500 -37500 0
175000 -37500 0
175000 -50000 0
187500 -50000 0
175000 -37500 0
187500 -37500 0
187500 -50000 0
200000 -50000 0
187500 -37500 0
200000 -37500 0
187500 -37500 0
200000 -37500 0
187500 -25000 0
200000 -25000 0
93750 -56250 0
100000 -56250 0
93750 -50000 0
100000 -50000 0
68750 -50000 0
75000 -50000 0
68750 -43750 0
75000 -43750 0
75000 -50000 0
81250 -50000 0
75000 -43750 0
81250 -43750 0
81250 -50000 0
87500 -50000 0
81250 -43750 0
87500 -43750 0
81250 -43750 0
87500 -43750 0
81250 -37500 0
87500 -37500 0
112500 -100000 0
118750 -100000 0
112500 -93750 0
118750 -93750 0
112500 -93750 0
118750 -93750 0
112500 -87500 0
118750 -87500 0
118750 -93750 0
125000 -93750 0
118750 -87500 0
125000 -87500 0
112500 -87500 0
118750 -87500 0
112500 -81250 0
118750 -81250 0
112500 -81250 0
118750 -81250 0
112500 -75000 0
118750 -75000 0
118750 -81250 0
125000 -81250 0
118750 -75000 0
125000 -75000 0
100000 -75000 0
106250 -75000 0
100000 -68750 0
106250 -68750 0
106250 -75000 0
112500 -75000 0
106250 -68750 0
112500 -68750 0
112500 -25000 0
118750 -25000 0
112500 -18750 0
118750 -18750 0
100000 -37500 0
106250 -37500 0
100000 -31250 0
106250 -31250 0
106250 -31250 0
112500 -31250 0
106250 -25000 0
112500 -25000 0
87500 -50000 0
93750 -50000 0
87500 -43750 0
93750 -43750 0
93750 -50000 0
100000 -50000 0
93750 -43750 0
100000 -43750 0
100000 -56250 0
106250 -56250 0
100000 -50000 0
106250 -50000 0
106250 -56250 0
112500 -56250 0
106250 -50000 0
112500 -50000 0
112500 -56250 0
118750 -56250 0
112500 -50000 0
118750 -50000 0
118750 -56250 0
125000 -56250 0
118750 -50000 0
125000 -50000 0
150000 -100000 0
156250 -100000 0
150000 -93750 0
156250 -93750 0
156250 -100000 0
162500 -100000 0
156250 -93750 0
162500 -93750 0
150000 -93750 0
156250 -93750 0
150000 -87500 0
156250 -87500 0
156250 -93750 0
162500 -93750 0
156250 -87500 0
162500 -87500 0
150000 -87500 0
156250 -87500 0
150000 -81250 0
156250 -81250 0
156250 -87500 0
162500 -87500 0
156250 -81250 0
162500 -81250 0
150000 -81250 0
156250 -81250 0
150000 -75000 0
156250 -75000 0
156250 -81250 0
162500 -81250 0
156250 -75000 0
162500 -75000 0
100000 -50000 0
106250 -50000 0
100000 -43750 0
106250 -43750 0
106250 -50000 0
112500 -50000 0
106250 -43750 0
112500 -43750 0
143750 -25000 0
150000 -25000 0
143750 -18750 0
150000 -18750 0
131250 -37500 0
137500 -37500 0
131250 -31250 0
137500 -31250 0
137500 -37500 0
143750 -37500 0
137500 -31250 0
143750 -31250 0
143750 -37500 0
150000 -37500 0
143750 -31250 0
150000 -31250 0
143750 -31250 0
150000 -31250 0
143750 -25000 0
150000 -25000 0
150000 -25000 0
156250 -25000 0
150000 -18750 0
156250 -18750 0
156250 -25000 0
162500 -25000 0
156250 -18750 0
162500 -18750 0
150000 -18750 0
156250 -18750 0
150000 -12500 0
156250 -12500 0
156250 -18750 0
162500 -18750 0
156250 -12500 0
162500 -12500 0
162500 -100000 0
168750 -100000 0
162500 -93750 0
168750 -93750 0
168750 -100000 0
175000 -100000 0
168750 -93750 0
175000 -93750 0
162500 -93750 0
168750 -93750 0
162500 -87500 0
168750 -87500 0
168750 -93750 0
175000 -93750 0
168750 -87500 0
175000 -87500 0
150000 -12500 0
156250 -12500 0
150000 -6250 0
156250 -6250 0
156250 -12500 0
162500 -12500 0
156250 -6250 0
162500 -6250 0
150000 -6250 0
156250 -6250 0
150000 0 0
156250 0 0
156250 -6250 0
162500 -6250 0
156250 0 0
162500 0 0
162500 -87500 0
168750 -87500 0
162500 -81250 0
168750 -81250 0
168750 -87500 0
175000 -87500 0
168750 -81250 0
175000 -81250 0
162500 -81250 0
168750 -81250 0
162500 -75000 0
168750 -75000 0
168750 -81250 0
175000 -81250 0
168750 -75000 0
175000 -75000 0
112500 -50000 0
118750 -50000 0
112500 -43750 0
118750 -43750 0
118750 -50000 0
125000 -50000 0
118750 -43750 0
125000 -43750 0
112500 -43750 0
118750 -43750 0
112500 -37500 0
118750 -37500 0
118750 -43750 0
125000 -43750 0
118750 -37500 0
125000 -37500 0
125000 -25000 0
131250 -25000 0
125000 -18750 0
131250 -18750 0
131250 -25000 0
137500 -25000 0
131250 -18750 0
137500 -18750 0
125000 -18750 0
131250 -18750 0
125000 -12500 0
131250 -12500 0
131250 -18750 0
137500 -18750 0
131250 -12500 0
137500 -12500 0
125000 -50000 0
131250 -50000 0
125000 -43750 0
131250 -43750 0
131250 -50000 0
137500 -50000 0
131250 -43750 0
137500 -43750 0
125000 -43750 0
131250 -43750 0
125000 -37500 0
131250 -37500 0
131250 -43750 0
137500 -43750 0
131250 -37500 0
137500 -37500 0
137500 -50000 0
143750 -50000 0
137500 -43750 0
143750 -43750 0
143750 -50000 0
150000 -50000 0
143750 -43750 0
150000 -43750 0
137500 -43750 0
143750 -43750 0
137500 -37500 0
143750 -37500 0
143750 -43750 0
150000 -43750 0
143750 -37500 0
150000 -37500 0
162500 -12500 0
168750 -12500 0
162500 -6250 0
168750 -6250 0
168750 -12500 0
175000 -12500 0
168750 -6250 0
175000 -6250 0
162500 -6250 0
168750 -6250 0
162500 0 0
168750 0 0
168750 -6250 0
175000 -6250 0
168750 0 0
175000 0 0
125000 -75000 0
131250 -75000 0
125000 -68750 0
131250 -68750 0
131250 -75000 0
137500 -75000 0
131250 -68750 0
137500 -68750 0
125000 -68750 0
131250 -68750 0
125000 -62500 0
131250 -62500 0
131250 -68750 0
137500 -68750 0
131250 -62500 0
137500 -62500 0
137500 -75000 0
143750 -75000 0
137500 -68750 0
143750 -68750 0
143750 -75000 0
150000 -75000 0
143750 -68750 0
150000 -68750 0
137500 -68750 0
143750 -68750 0
137500 -62500 0
143750 -62500 0
143750 -68750 0
150000 -68750 0
143750 -62500 0
150000 -62500 0
125000 -62500 0
131250 -62500 0
125000 -56250 0
131250 -56250 0
131250 -62500 0
137500 -62500 0
131250 -56250 0
137500 -56250 0
125000 -56250 0
131250 -56250 0
125000 -50000 0
131250 -50000 0
131250 -56250 0
137500 -56250 0
131250 -50000 0
137500 -50000 0
137500 -62500 0
143750 -62500 0
137500 -56250 0
143750 -56250 0
143750 -62500 0
150000 -62500 0
143750 -56250 0
150000 -56250 0
137500 -56250 0
143750 -56250 0
137500 -50000 0
143750 -50000 0
143750 -56250 0
150000 -56250 0
143750 -50000 0
150000 -50000 0
175000 -100000 0
181250 -100000 0
175000 -93750 0
181250 -93750 0
181250 -100000 0
187500 -100000 0
181250 -93750 0
187500 -93750 0
175000 -93750 0
181250 -93750 0
175000 -87500 0
181250 -87500 0
181250 -93750 0
187500 -93750 0
181250 -87500 0
187500 -87500 0
187500 -100000 0
193750 -100000 0
187500 -93750 0
193750 -93750 0
193750 -100000 0
200000 -100000 0
193750 -93750 0
200000 -93750 0
187500 -93750 0
193750 -93750 0
187500 -87500 0
193750 -87500 0
193750 -93750 0
200000 -93750 0
193750 -87500 0
200000 -87500 0
175000 -87500 0
181250 -87500 0
175000 -81250 0
181250 -81250 0
181250 -87500 0
187500 -87500 0
181250 -81250 0
187500 -81250 0
175000 -81250 0
181250 -81250 0
175000 -75000 0
181250 -75000 0
181250 -81250 0
187500 -81250 0
181250 -75000 0
187500 -75000 0
187500 -87500 0
193750 -87500 0
187500 -81250 0
193750 -81250 0
193750 -87500 0
200000 -87500 0
193750 -81250 0
200000 -81250 0
187500 -81250 0
193750 -81250 0
187500 -75000 0
193750 -75000 0
193750 -81250 0
200000 -81250 0
193750 -75000 0
200000 -75000 0
150000 -75000 0
156250 -75000 0
150000 -68750 0
156250 -68750 0
156250 -75000 0
162500 -75000 0
156250 -68750 0
162500 -68750 0
150000 -68750 0
156250 -68750 0
150000 -62500 0
156250 -62500 0
156250 -68750 0
162500 -68750 0
156250 -62500 0
162500 -62500 0
162500 -75000 0
168750 -75000 0
162500 -68750 0
168750 -68750 0
168750 -75000 0
175000 -75000 0
168750 -68750 0
175000 -68750 0
162500 -68750 0
168750 -68750 0
162500 -62500 0
168750 -62500 0
168750 -68750 0
175000 -68750 0
168750 -62500 0
175000 -62500 0
175000 -75000 0
181250 -75000 0
175000 -68750 0
181250 -68750 0
181250 -75000 0
187500 -75000 0
181250 -68750 0
187500 -68750 0
175000 -68750 0
181250 -68750 0
175000 -62500 0
181250 -62500 0
181250 -68750 0
187500 -68750 0
181250 -62500 0
187500 -62500 0
150000 -37500 0
156250 -37500 0
150000 -31250 0
156250 -31250 0
156250 -37500 0
162500 -37500 0
156250 -31250 0
162500 -31250 0
150000 -31250 0
156250 -31250 0
150000 -25000 0
156250 -25000 0
156250 -31250 0
162500 -31250 0
156250 -25000 0
162500 -25000 0
162500 -37500 0
168750 -37500 0
162500 -31250 0
168750 -31250 0
168750 -37500 0
175000 -37500 0
168750 -31250 0
175000 -31250 0
162500 -31250 0
168750 -31250 0
162500 -25000 0
168750 -25000 0
168750 -31250 0
175000 -31250 0
168750 -25000 0
175000 -25000 0
175000 -37500 0
181250 -37500 0
175000 -31250 0
181250 -31250 0
181250 -37500 0
187500 -37500 0
181250 -31250 0
187500 -31250 0
175000 -31250 0
181250 -31250 0
175000 -25000 0
181250 -25000 0
181250 -31250 0
187500 -31250 0
181250 -25000 0
187500 -25000 0
175000 -25000 0
181250 -25000 0
175000 -18750 0
181250 -18750 0
181250 -25000 0
187500 -25000 0
181250 -18750 0
187500 -18750 0
175000 -18750 0
181250 -18750 0
175000 -12500 0
181250 -12500 0
181250 -18750 0
187500 -18750 0
181250 -12500 0
187500 -12500 0
187500 -25000 0
193750 -25000 0
187500 -18750 0
193750 -18750 0
193750 -25000 0
200000 -25000 0
193750 -18750 0
200000 -18750 0
187500 -18750 0
193750 -18750 0
187500 -12500 0
193750 -12500 0
193750 -18750 0
200000 -18750 0
193750 -12500 0
200000 -12500 0
175000 -12500 0
181250 -12500 0
175000 -6250 0
181250 -6250 0
181250 -12500 0
187500 -12500 0
181250 -6250 0
187500 -6250 0
175000 -6250 0
181250 -6250 0
175000 0 0
181250 0 0
181250 -6250 0
187500 -6250 0
181250 0 0
187500 0 0
187500 -12500 0
193750 -12500 0
187500 -6250 0
193750 -6250 0
193750 -12500 0
200000 -12500 0
193750 -6250 0
200000 -6250 0
187500 -6250 0
193750 -6250 0
187500 0 0
193750 0 0
193750 -6250 0
200000 -6250 0
[...]
POINT_DATA 26120
SCALARS velocity double 1
LOOKUP_TABLE default
85.929 86.0029 86.9878 86.348 83.9991 84.2628 84.5507 84.662 84.2628 84.1158 84.662 84.7628 83.4612 83.2906 84.0022 83.841 84.1158 84.0022 84.7628 84.6662 84.0022 83.841 84.6662 84.5741 84.5507 84.662 84.8317 85.1889 84.662 84.7628 85.1889 85.3252 84.7628 84.6662 85.3252 85.3074 84.6662 84.5741 85.3074 85.3462 85.3074 85.3462 85.975 86.0488 82.8138 82.6197 82.2769 82.3776 77.4691 80.0003 76.291 78.2768 80.0003 81.4189 78.2768 78.9838 81.4189 82.5043 78.9838 80.2284 78.9838 80.2284 78.1562 80.0015 75.3524 77.855 76.857 78.417 76.857 78.417 79.4153 79.579 78.417 77.9162 79.579 79.0124 79.4153 79.579 80.6639 80.8357 80.6639 80.8357 81.2823 81.1231 80.8357 80.0048 81.1231 81.3933 81.2205 81.0144 82.2334 81.6307 81.0144 81.2823 81.6307 81.8686 87.8409 88.3316 91.2255 88.1719 83.9941 84.6221 85.3914 84.4941 84.4941 85.8286 86.9759 87.8409 82.5043 82.2769 80.2284 81.3301 82.2769 82.3776 81.3301 82.4876 82.6197 82.7616 82.3776 82.6876 82.7616 83.076 82.6876 83.0929 83.076 83.3896 83.0929 83.3772 83.3896 83.5279 83.3772 83.6858 81.7702 82.0003 82.1291 81.9503 82.0003 82.0134 81.9503 82.0782 82.1291 81.9503 82.5406 83.194 81.9503 82.0782 83.194 83.206 82.5406 83.194 83.2038 83.49 83.194 83.206 83.49 83.5218 83.2038 83.49 83.5551 83.8291 83.49 83.5218 83.8291 83.9225 82.3776 82.6876 82.4876 83.0362 82.6876 83.0929 83.0362 83.5466 85.5283 85.8032 87.2076 86.9696 84.9171 84.4242 86.8577 85.7454 84.4242 84.4602 85.7454 85.146 84.4602 84.8317 85.146 85.3209 85.146 85.3209 85.5283 85.8032 85.8032 85.7839 86.9696 87.0475 85.7839 85.929 87.0475 86.4584 86.9696 87.0475 88.4428 87.4737 87.0475 86.4584 87.4737 86.9878 82.0134 82.2893 82.0782 82.7467 82.2893 82.5938 82.7467 82.8913 82.0782 82.7467 83.206 83.0188 82.7467 82.8913 83.0188 83.1982 88.4428 87.4737 89.0057 88.0147 87.4737 86.9878 88.0147 87.2414 89.0057 88.0147 89.4737 88.3353 88.0147 87.2414 88.3353 87.4246 83.206 83.0188 83.5218 83.3219 83.0188 83.1982 83.3219 83.3536 83.5218 83.3219 83.9225 83.8101 83.3219 83.3536 83.8101 83.6533 83.0929 83.3772 83.5466 84.0707 83.3772 83.6858 84.0707 84.2085 83.5466 84.0707 84.8169 84.6744 84.0707 84.2085 84.6744 85.1635 89.1461 87.9454 89.5621 88.2293 87.9454 86.4447 88.2293 87.9586 89.5621 88.2293 87.1314 88.2955 88.2293 87.9586 88.2955 88.5591 83.6858 84.0825 84.2085 84.5066 84.0825 84.2814 84.5066 84.522 84.2085 84.5066 85.1635 84.9171 84.5066 84.522 84.9171 84.4242 84.2814 84.428 84.522 84.5476 84.428 84.5507 84.5476 84.6912 84.522 84.5476 84.4242 84.4602 84.5476 84.6912 84.4602 84.8317 86.9878 86.6679 87.2414 86.8019 86.6679 86.348 86.8019 86.4255 87.2414 86.8019 87.4246 86.9141 86.8019 86.4255 86.9141 86.4654 81.3933 81.8642 82.4596 82.6185 81.8642 82.3757 82.6185 82.8547 82.4596 82.6185 83.3515 83.1534 82.6185 82.8547 83.1534 83.3072 82.3757 82.9859 82.8547 83.2453 82.9859 83.5551 83.2453 83.5822 82.8547 83.2453 83.3072 83.597 83.2453 83.5822 83.597 83.9991 83.3515 83.1534 83.5279 83.6123 83.1534 83.3072 83.6123 83.8347 83.5279 83.6123 83.6858 84.0825 83.6123 83.8347 84.0825 84.2814 83.3072 83.597 83.8347 84.0867 83.597 83.9991 84.0867 84.2749 83.8347 84.0867 84.2814 84.428 84.0867 84.2749 84.428 84.5507 82.5938 82.6802 82.8913 82.9019 82.6802 82.7745 82.9019 82.9475 82.8913 82.9019 83.1982 83.1612 82.9019 82.9475 83.1612 83.0409 82.7745 82.4937 82.9475 82.7105 82.4937 82.2291 82.7105 82.4324 82.9475 82.7105 83.0409 82.9539 82.7105 82.4324 82.9539 82.8117 83.1982 83.1612 83.3536 83.3231 83.1612 83.0409 83.3231 83.1695 83.3536 83.3231 83.6533 83.5466 83.3231 83.1695 83.5466 83.4612 83.0409 82.9539 83.1695 83.1558 82.9539 82.8117 83.1558 83.1426 83.1695 83.1558 83.4612 83.3759 83.1558 83.1426 83.3759 83.2906 83.5551 83.8291 83.5822 83.7982 83.8291 83.9225 83.7982 84.0563 83.5822 83.7982 83.9991 84.1309 83.7982 84.0563 84.1309 84.2628 83.9225 83.8101 84.0563 84.0975 83.8101 83.6533 84.0975 83.9745 84.0563 84.0975 84.2628 84.1893 84.0975 83.9745 84.1893 84.1158 83.6533 83.5466 83.9745 83.8178 83.5466 83.4612 83.8178 83.7317 83.9745 83.8178 84.1158 84.059 83.8178 83.7317 84.059 84.0022 84.8317 85.0103 85.3209 85.3996 85.0103 85.1889 85.3996 85.4729 85.3209 85.3996 85.8032 85.7839 85.3996 85.4729 85.7839 85.929 85.1889 85.257 85.4729 85.536 85.257 85.3252 85.536 85.6088 85.4729 85.536 85.929 85.9659 85.536 85.6088 85.9659 86.0029 85.3252 85.3163 85.6088 85.6506 85.3163 85.3074 85.6506 85.6412 85.6088 85.6506 86.0029 85.9266 85.6506 85.6412 85.9266 85.975 86.0029 85.9266 86.1755 86.1503 85.9266 85.975 86.1503 86.2465 86.1755 86.1503 86.348 86.0972 86.1503 86.2465 86.0972 86.3422 85.975 86.0119 86.2465 86.4161 86.0119 86.0488 86.4161 86.4674 86.2465 86.4161 86.3422 86.9749 86.4161 86.4674 86.9749 87.2812 86.348 86.0972 86.4255 85.8617 86.0972 86.3422 85.8617 85.2429 86.4255 85.8617 86.4654 85.7267 85.8617 85.2429 85.7267 84.2439 86.3422 86.9749 85.2429 87.6275 86.9749 87.2812 87.6275 90.1655 85.2429 87.6275 84.2439 88.108 87.6275 90.1655 88.108 92.6616 67.7446 70.2225 68.1567 69.997 67.4433 68.1567 67.6613 69.5794 54.6793 55.9823 55.1689 57.005 55.9823 55.1948 57.005 57.9112 55.1689 57.005 57.9073 59.0048 57.005 57.9112 59.0048 60.1946 57.9073 59.0048 60.2174 61.0662 59.0048 60.1946 61.0662 62.607 59.1869 60.2174 59.7037 61.4138 59.7037 61.4138 61.8953 63.1223 60.2174 61.0662 61.4138 62.5729 61.0662 62.607 62.5729 64.1062 61.4138 62.5729 63.1223 63.0391 62.5729 64.1062 63.0391 65.015 62.4946 61.8953 62.8727 63.057 61.8953 63.1223 63.057 64.0945 62.8727 63.057 63.7337 63.1543 63.057 64.0945 63.1543 63.0928 63.0391 65.015 63.7508 65.4607 64.0945 63.7508 63.0928 64.2165 63.7508 65.4607 64.2165 65.9696 64.9588 65.0312 66.2048 66.4211 66.7179 66.2048 67.5727 68.8198 66.2048 66.4211 68.8198 66.9497 67.5727 68.8198 69.9364 69.8401 68.8784 69.9364 69.8282 70.5176 69.1782 69.8282 70.2225 70.8902 66.4031 67.6613 67.0701 69.5704 71.5177 72.9953 71.3192 72.4932 72.9953 74.0314 72.4932 73.8588 74.0314 75.7259 73.8588 75.6683 75.7259 77.2739 75.6683 78.6626 78.6626 81.3533 82.5259 84.2119 94.0179 96.4097 93.5769 95.9123 96.4097 97.0225 95.9123 97.6259 97.0225 95.6015 97.6259 98.0671 95.9123 97.6259 96.6935 99.52 97.6259 98.0671 99.52 101.702 99.52 101.702 102.231 106.445 102.231 106.445 104.538 110.741 111.036 112.727 111.631 113.763 110.741 117.629 110.934 114.721 117.629 119.407 114.721 117.029 110.934 114.721 112.036 114.565 119.407 118.121 117.029 117.628 112.036 114.565 112.727 115.278 114.565 116.747 115.278 117.434 79.9372 81.2205 80.6005 81.7269 80.6005 81.7269 81.7225 82.2334 79.8283 81.0605 82.211 81.1448 81.0605 81.4146 81.1448 81.2787 80.2492 81.7225 81.4146 81.4166 81.7225 82.2334 81.4166 81.9196 81.4146 81.4166 81.2787 81.3061 81.4166 81.9196 81.3061 81.5582 74.278 76.7691 74.933 75.7908 76.7691 78.154 75.7908 77.4691 77.6397 80.0089 78.154 79.2566 80.0089 80.9739 79.2566 80.251 78.154 79.2566 77.4691 78.7347 79.2566 80.251 78.7347 80.0003 65.4118 67.5806 64.2119 64.6529 67.5806 68.1336 64.6529 67.1235 71.6192 72.8903 72.1347 72.2399 67.3894 68.9944 68.1336 69.473 68.9944 71.2187 69.473 71.3729 68.1336 69.473 67.1235 69.8393 69.473 71.3729 69.8393 71.7119 79.8635 81.7776 81.202 81.4988 80.4718 81.202 80.9739 81.0189 81.202 81.4988 81.0189 81.5875 81.7776 82.6775 81.4988 82.2481 82.6775 82.211 82.2481 83.1342 81.4988 82.2481 81.5875 82.0954 82.2481 83.1342 82.0954 82.8573 70.2091 72.8859 72.2901 73.71 72.8903 72.2901 72.2399 72.6813 72.2901 73.71 72.6813 73.3511 73.3511 74.2969 74.2605 74.6422 74.2969 75.6817 74.6422 75.8045 74.6422 75.8045 76.6992 76.6997 75.6817 75.8029 75.8045 76.0445 75.8029 76.291 76.0445 76.3727 75.8045 76.0445 76.6997 75.4072 76.0445 76.3727 75.4072 75.8826 76.291 77.2839 76.3727 77.0319 77.2839 78.2768 77.0319 78.6376 76.3727 77.0319 75.8826 76.6291 77.0319 78.6376 76.6291 77.5877 74.591 76.9299 76.1018 77.7088 76.9299 78.2469 77.7088 78.9534 76.1018 77.7088 77.6285 78.6817 77.7088 78.9534 78.6817 80.2492 77.4715 78.1562 80.0172 78.3648 78.1562 79.0789 78.3648 78.2518 79.0789 80.0015 78.2518 80.1081 68.8636 71.749 70.6602 71.5169 71.749 73.7497 71.5169 73.8179 73.7497 75.3524 73.8179 76.1047 71.5169 73.8179 73.0615 74.853 73.8179 76.1047 74.853 76.857 73.0615 74.853 75.5884 76.326 74.853 76.857 76.326 78.1361 76.326 78.1361 78.5652 79.4153 71.2187 72.1347 71.3729 72.7337 72.1347 72.2399 72.7337 74.1677 71.3729 72.7337 71.7119 72.9752 72.7337 74.1677 72.9752 73.8346 80.9739 81.0189 80.251 80.881 81.0189 81.5875 80.881 81.4184 80.251 80.881 80.0003 80.7096 80.881 81.4184 80.7096 81.4189 81.5875 82.0954 81.4184 81.8021 82.0954 82.8573 81.8021 82.2566 81.4184 81.8021 81.4189 81.9616 81.8021 82.2566 81.9616 82.5043 82.211 81.1448 83.1342 82.5004 81.1448 81.2787 82.5004 82.2305 83.1342 82.5004 82.8573 82.9505 82.5004 82.2305 82.9505 82.8138 81.2787 81.3061 82.2305 82.1578 81.3061 81.5582 82.1578 82.0753 82.2305 82.1578 82.8138 82.7168 82.1578 82.0753 82.7168 82.6197 82.8573 82.9505 82.2566 82.6277 82.9505 82.8138 82.6277 82.5453 82.2566 82.6277 82.5043 82.3906 82.6277 82.5453 82.3906 82.2769 72.8859 74.0337 73.71 73.7542 74.0337 74.933 73.7542 74.5001 73.71 73.7542 73.3511 74.2969 73.7542 74.5001 74.2969 75.6817 72.2399 72.6813 74.1677 75.0632 72.6813 73.3511 75.0632 74.2605 74.1677 75.0632 73.8346 74.6 75.0632 74.2605 74.6 75.9534 74.933 75.7908 74.5001 76.0495 75.7908 77.4691 76.0495 76.8801 74.5001 76.0495 75.6817 75.8029 76.0495 76.8801 75.8029 76.291 91.2255 89.6987 92.9899 91.1903 89.6987 88.1719 91.1903 89.3842 92.9899 91.1903 96.0863 91.1007 91.1903 89.3842 91.1007 91.0405 91.1007 91.0405 89.3745 92.1152 89.3745 92.1152 93.0049 92.7538 91.0405 91.69 92.1152 94.61 92.1152 94.61 92.7538 93.3243 94.61 89.157 93.3243 93.0046 93.0049 92.7538 96.9809 94.166 104.021 96.9809 102.959 99.329 96.9809 94.166 99.329 95.3099 78.2768 78.6303 78.6376 78.2831 78.6303 78.9838 78.2831 78.57 78.6376 78.2831 77.5877 77.4715 78.2831 78.57 77.4715 78.1562 85.3914 84.9427 87.0559 83.6555 84.9427 84.4941 83.6555 85.735 83.6555 85.735 87.4596 86.9759 77.855 77.0833 78.136 77.636 77.0833 76.4832 77.636 77.0308 78.136 77.636 78.417 78.1666 77.636 77.0308 78.1666 77.9162 79.579 79.2957 80.2074 79.8302 79.2957 79.0124 79.8302 79.2861 80.2074 79.8302 80.8357 80.4203 79.8302 79.2861 80.4203 80.0048 82.2334 81.932 81.9196 81.9114 81.932 81.6307 81.9114 81.8814 81.9196 81.9114 81.5582 81.8959 81.9114 81.8814 81.8959 82.2398 81.6307 81.7496 81.8814 82.1749 81.7496 81.8686 82.1749 82.4834 81.8814 82.1749 82.2398 82.6294 82.1749 82.4834 82.6294 82.916 88.3316 88.719 88.2518 88.8008 88.719 89.1461 88.8008 89.3541 88.2518 88.8008 88.1719 88.8696 88.8008 89.3541 88.8696 89.5621 88.1719 88.8696 89.3842 89.2746 88.8696 89.5621 89.2746 88.3467 89.3842 89.2746 91.0405 91.69 89.2746 88.3467 91.69 87.1314 92.7538 93.3243 94.166 94.0598 93.3243 93.0046 94.0598 94.2001 94.166 94.0598 95.3099 94.7728 94.0598 94.2001 94.7728 94.9472 84.6221 84.4018 84.5581 84.3803 84.4018 84.8169 84.3803 85.2143 84.5581 84.3803 84.4941 85.1613 84.3803 85.2143 85.1613 85.8286 84.8169 84.7456 85.2143 85.7324 84.7456 84.6744 85.7324 85.1295 85.2143 85.7324 85.8286 86.109 85.7324 85.1295 86.109 86.409 84.6744 84.9189 85.1295 85.7674 84.9189 85.1635 85.7674 86.2372 85.1295 85.7674 86.409 86.7833 85.7674 86.2372 86.7833 87.1578 85.8286 86.109 86.8347 87.219 86.109 86.409 87.219 87.4133 86.8347 87.219 87.8409 88.0862 87.219 87.4133 88.0862 88.3316 86.409 86.7833 87.4133 87.7037 86.7833 87.1578 87.7037 88.1038 87.4133 87.7037 88.3316 88.719 87.7037 88.1038 88.719 89.1461 80.2284 80.7792 80.115 81.0994 80.7792 81.3301 81.0994 81.8083 80.115 81.0994 80.0015 81.2204 81.0994 81.8083 81.2204 82.3549 81.3301 81.9088 81.8083 82.4869 81.9088 82.4876 82.4869 83.2661 81.8083 82.4869 82.3549 83.287 82.4869 83.2661 83.287 83.9941 80.0015 81.2204 80.1081 82.1316 81.2204 82.3549 82.1316 83.1865 80.1081 82.1316 82.0591 83.0097 82.1316 83.1865 83.0097 84.1128 82.3549 83.287 83.1865 83.9594 83.287 83.9941 83.9594 84.6927 83.1865 83.9594 84.1128 85.2981 83.9594 84.6927 85.2981 85.3914 82.0591 83.0097 84.3121 84.6284 83.0097 84.1128 84.6284 84.647 84.3121 84.6284 86.2409 84.6431 84.6284 84.647 84.6431 83.6895 84.1128 85.2981 84.647 85.5063 85.2981 85.3914 85.5063 87.0559 84.647 85.5063 83.6895 84.993 85.5063 87.0559 84.993 88.4044 78.0196 78.5159 77.9324 78.7407 78.5159 78.5435 78.7407 79.1329 77.9324 78.7407 78.6982 79.3559 78.7407 79.1329 79.3559 79.7923 78.5435 78.5652 79.1329 79.6054 78.5652 79.4153 79.6054 80.0396 79.1329 79.6054 79.7923 80.174 79.6054 80.0396 80.174 80.6639 78.6982 79.3559 79.7615 80.2221 79.3559 79.7923 80.2221 80.367 79.7615 80.2221 81.2205 81.1174 80.2221 80.367 81.1174 81.0144 79.7923 80.174 80.367 80.6465 80.174 80.6639 80.6465 80.9731 80.367 80.6465 81.0144 81.1483 80.6465 80.9731 81.1483 81.2823 76.4832 77.683 77.0308 78.1907 77.683 78.6751 78.1907 79.036 77.0308 78.1907 77.9162 78.6373 78.1907 79.036 78.6373 79.4911 78.6751 79.5672 79.036 79.8933 79.5672 80.4457 79.8933 80.72 79.036 79.8933 79.4911 80.3403 79.8933 80.72 80.3403 81.0716 77.9162 78.6373 78.4643 79.3413 78.6373 79.4911 79.3413 80.1705 78.4643 79.3413 79.0124 79.8738 79.3413 80.1705 79.8738 80.5513 79.4911 80.3403 80.1705 80.7865 80.3403 81.0716 80.7865 81.2773 80.1705 80.7865 80.5513 81.0073 80.7865 81.2773 81.0073 81.3825 80.4457 80.8532 80.72 81.049 80.8532 81.1432 81.049 81.3826 80.72 81.049 81.0716 81.3368 81.049 81.3826 81.3368 81.5953 81.1432 81.4314 81.3826 81.6932 81.4314 81.7702 81.6932 81.9497 81.3826 81.6932 81.5953 81.9449 81.6932 81.9497 81.9449 82.1291 81.0716 81.3368 81.2773 81.6107 81.3368 81.5953 81.6107 81.8143 81.2773 81.6107 81.3825 81.7464 81.6107 81.8143 81.7464 82.0133 81.5953 81.9449 81.8143 82.1127 81.9449 82.1291 82.1127 82.3349 81.8143 82.1127 82.0133 82.2946 82.1127 82.3349 82.2946 82.5406 79.0124 79.8738 79.2861 80.1424 79.8738 80.5513 80.1424 80.7464 79.2861 80.1424 80.0048 80.5928 80.1424 80.7464 80.5928 81.1096 80.5513 81.0073 80.7464 81.2636 81.0073 81.3825 81.2636 81.6403 80.7464 81.2636 81.1096 81.5352 81.2636 81.6403 81.5352 81.8684 80.0048 80.5928 80.6991 81.1485 80.5928 81.1096 81.1485 81.5068 80.6991 81.1485 81.3933 81.6288 81.1485 81.5068 81.6288 81.8642 81.1096 81.5352 81.5068 81.8271 81.5352 81.8684 81.8271 82.072 81.5068 81.8271 81.8642 82.12 81.8271 82.072 82.12 82.3757 81.3825 81.7464 81.6403 81.9269 81.7464 82.0133 81.9269 82.2243 81.6403 81.9269 81.8684 82.1594 81.9269 82.2243 82.1594 82.4084 82.0133 82.2946 82.2243 82.5627 82.2946 82.5406 82.5627 82.8722 82.2243 82.5627 82.4084 82.7569 82.5627 82.8722 82.7569 83.2038 81.8684 82.1594 82.072 82.3804 82.1594 82.4084 82.3804 82.6822 82.072 82.3804 82.3757 82.6808 82.3804 82.6822 82.6808 82.9859 82.4084 82.7569 82.6822 83.067 82.7569 83.2038 83.067 83.3794 82.6822 83.067 82.9859 83.2705 83.067 83.3794 83.2705 83.5551 81.2823 81.2027 81.5754 81.5496 81.2027 81.1231 81.5496 81.5918 81.5754 81.5496 81.8686 81.9836 81.5496 81.5918 81.9836 81.8832 81.1231 81.2582 81.5918 81.7484 81.2582 81.3933 81.7484 81.9265 81.5918 81.7484 81.8832 82.0404 81.7484 81.9265 82.0404 82.4596 81.8686 81.9836 82.4834 82.3362 81.9836 81.8832 82.3362 82.4037 82.4834 82.3362 82.916 83.0322 82.3362 82.4037 83.0322 83.1413 81.8832 82.0404 82.4037 82.6853 82.0404 82.4596 82.6853 82.9055 82.4037 82.6853 83.1413 83.297 82.6853 82.9055 83.297 83.3515 81.5582 81.8959 82.0753 82.5911 81.8959 82.2398 82.5911 82.7286 82.0753 82.5911 82.6197 82.6906 82.5911 82.7286 82.6906 82.7616 82.2398 82.6294 82.7286 82.8027 82.6294 82.916 82.8027 82.9554 82.7286 82.8027 82.7616 82.9188 82.8027 82.9554 82.9188 83.076 82.916 83.0322 82.9554 83.1145 83.0322 83.1413 83.1145 83.252 82.9554 83.1145 83.076 83.2328 83.1145 83.252 83.2328 83.3896 83.1413 83.297 83.252 83.3795 83.297 83.3515 83.3795 83.4397 83.252 83.3795 83.3896 83.4587 83.3795 83.4397 83.4587 83.5279 88.4044 87.4596 89.1892 89.6271 87.4596 86.9759 89.6271 89.6702 89.1892 89.6271 92.2785 92.5011 89.6271 89.6702 92.5011 92.3034 86.9759 87.4084 89.6702 89.7463 87.4084 87.8409 89.7463 89.5332 89.6702 89.7463 92.3034 91.8845 89.7463 89.5332 91.8845 91.2255 92.2785 92.5011 95.5235 95.4724 92.5011 92.3034 95.4724 95.0901 95.5235 95.4724 99.1938 98.4373 95.4724 95.0901 98.4373 97.9894 92.3034 91.8845 95.0901 94.3755 91.8845 91.2255 94.3755 92.9899 95.0901 94.3755 97.9894 97.6864 94.3755 92.9899 97.6864 96.0863 99.1938 98.4373 102.561 101.438 98.4373 97.9894 101.438 100.807 102.561 101.438 105.205 103.808 101.438 100.807 103.808 103.043 97.9894 97.6864 100.807 100.776 97.6864 96.0863 100.776 103.197 100.807 100.776 103.043 103.153 100.776 103.197 103.153 104.536 105.205 103.808 107.573 105.803 103.808 103.043 105.803 104.614 107.573 105.803 109.519 106.731 105.803 104.614 106.731 105.48 103.043 103.153 104.614 104.022 103.153 104.536 104.022 104.021 104.614 104.022 105.48 104.69 104.022 104.021 104.69 102.959 82.4876 82.7619 83.2661 83.5372 82.7619 83.0362 83.5372 83.4173 83.2661 83.5372 83.9941 84.3081 83.5372 83.4173 84.3081 84.6221 83.0362 83.2914 83.4173 83.465 83.2914 83.5466 83.465 84.1817 83.4173 83.465 84.6221 84.4018 83.465 84.1817 84.4018 84.8169 86.4447 85.6733 87.2016 86.7436 85.6733 85.5283 86.7436 86.3679 87.2016 86.7436 87.9586 87.5668 86.7436 86.3679 87.5668 87.2076 87.9586 87.5668 88.2588 88.544 87.5668 87.2076 88.544 88.2661 88.2588 88.544 88.5591 89.1656 88.544 88.2661 89.1656 89.2708 87.2076 87.0886 88.2661 87.8932 87.0886 86.9696 87.8932 87.7062 88.2661 87.8932 89.2708 89.0438 87.8932 87.7062 89.0438 88.4428 87.1314 87.7135 89.157 89.6189 87.7135 88.2955 89.6189 89.865 89.157 89.6189 93.0046 91.7617 89.6189 89.865 91.7617 91.1592 88.2955 88.4273 89.865 89.7138 88.4273 88.5591 89.7138 89.1774 89.865 89.7138 91.1592 90.4904 89.7138 89.1774 90.4904 89.7417 93.0046 91.7617 94.2001 92.908 91.7617 91.1592 92.908 91.8722 94.2001 92.908 94.9472 93.7851 92.908 91.8722 93.7851 92.2938 91.1592 90.4904 91.8722 91.2695 90.4904 89.7417 91.2695 90.5238 91.8722 91.2695 92.2938 91.566 91.2695 90.5238 91.566 91.0117 88.5591 89.1656 89.1774 89.3371 89.1656 89.2708 89.3371 89.2956 89.1774 89.3371 89.7417 89.6593 89.3371 89.2956 89.6593 89.5179 89.2708 89.0438 89.2956 89.0521 89.0438 88.4428 89.0521 88.7243 89.2956 89.0521 89.5179 89.3007 89.0521 88.7243 89.3007 89.0057 89.7417 89.6593 90.5238 90.1732 89.6593 89.5179 90.1732 89.8657 90.5238 90.1732 91.0117 90.5224 90.1732 89.8657 90.5224 90.2222 89.5179 89.3007 89.8657 89.5445 89.3007 89.0057 89.5445 89.2397 89.8657 89.5445 90.2222 89.9298 89.5445 89.2397 89.9298 89.4737 85.1635 85.0403 86.2372 86.0555 85.0403 84.9171 86.0555 85.8874 86.2372 86.0555 87.1578 86.9044 86.0555 85.8874 86.9044 86.8577 87.1578 86.9044 88.1038 87.5869 86.9044 86.8577 87.5869 87.3749 88.1038 87.5869 89.1461 88.5457 87.5869 87.3749 88.5457 87.9454 86.8577 86.3016 87.3749 86.7555 86.3016 85.7454 86.7555 86.2076 87.3749 86.7555 87.9454 87.195 86.7555 86.2076 87.195 86.4447 85.7454 85.4457 86.2076 85.691 85.4457 85.146 85.691 85.3371 86.2076 85.691 86.4447 85.6733 85.691 85.3371 85.6733 85.5283 67.0253 67.7446 67.5559 67.9507 68.0117 67.5559 67.4433 67.8 67.5559 67.9507 67.8 68.1567 92.3221 90.568 92.4753 90.7144 90.568 88.7521 90.7144 88.8691 92.4753 90.7144 92.58 90.8376 90.7144 88.8691 90.8376 88.9925 88.7521 86.9275 88.8691 87.067 86.9275 84.8802 87.067 85.1507 88.8691 87.067 88.9925 87.2281 87.067 85.1507 87.2281 85.4366 53.7748 53.4511 54.5126 53.2224 53.4511 52.3344 53.2224 53.0706 53.2224 53.0706 53.7916 53.8712 53.7916 53.8712 54.3832 53.6568 53.8712 54.3709 53.6568 54.4236 54.3709 54.6793 54.4236 54.9241 53.6568 54.4236 54.0324 54.6479 54.4236 54.9241 54.6479 55.1689 92.58 90.8376 92.5413 90.8115 90.8376 88.9925 90.8115 89.0101 92.5413 90.8115 92.4494 90.7664 90.8115 89.0101 90.7664 89.0294 88.9925 87.2281 89.0101 87.1742 87.2281 85.4366 87.1742 85.5813 89.0101 87.1742 89.0294 87.3946 87.1742 85.5813 87.3946 85.9236 84.8802 83.3402 85.1507 83.7625 83.3402 81.9478 83.7625 82.3369 85.1507 83.7625 85.4366 84.0805 83.7625 82.3369 84.0805 82.6401 81.9478 80.6486 82.3369 80.9801 80.6486 79.3857 80.9801 79.6374 82.3369 80.9801 82.