# vtk DataFile Version 3.0
#This file was generated by the deal.II library on 2016/5/13 at 16:44:19
ASCII
DATASET UNSTRUCTURED_GRID

POINTS 26120 double
162500 -25000 0
175000 -25000 0
162500 -12500 0
175000 -12500 0
150000 -62500 0
162500 -62500 0
150000 -50000 0
162500 -50000 0
162500 -62500 0
175000 -62500 0
162500 -50000 0
175000 -50000 0
187500 -75000 0
200000 -75000 0
187500 -62500 0
200000 -62500 0
175000 -62500 0
187500 -62500 0
175000 -50000 0
187500 -50000 0
187500 -62500 0
200000 -62500 0
187500 -50000 0
200000 -50000 0
150000 -50000 0
162500 -50000 0
150000 -37500 0
162500 -37500 0
162500 -50000 0
175000 -50000 0
162500 -37500 0
175000 -37500 0
175000 -50000 0
187500 -50000 0
175000 -37500 0
187500 -37500 0
187500 -50000 0
200000 -50000 0
187500 -37500 0
200000 -37500 0
187500 -37500 0
200000 -37500 0
187500 -25000 0
200000 -25000 0
93750 -56250 0
100000 -56250 0
93750 -50000 0
100000 -50000 0
68750 -50000 0
75000 -50000 0
68750 -43750 0
75000 -43750 0
75000 -50000 0
81250 -50000 0
75000 -43750 0
81250 -43750 0
81250 -50000 0
87500 -50000 0
81250 -43750 0
87500 -43750 0
81250 -43750 0
87500 -43750 0
81250 -37500 0
87500 -37500 0
112500 -100000 0
118750 -100000 0
112500 -93750 0
118750 -93750 0
112500 -93750 0
118750 -93750 0
112500 -87500 0
118750 -87500 0
118750 -93750 0
125000 -93750 0
118750 -87500 0
125000 -87500 0
112500 -87500 0
118750 -87500 0
112500 -81250 0
118750 -81250 0
112500 -81250 0
118750 -81250 0
112500 -75000 0
118750 -75000 0
118750 -81250 0
125000 -81250 0
118750 -75000 0
125000 -75000 0
100000 -75000 0
106250 -75000 0
100000 -68750 0
106250 -68750 0
106250 -75000 0
112500 -75000 0
106250 -68750 0
112500 -68750 0
112500 -25000 0
118750 -25000 0
112500 -18750 0
118750 -18750 0
100000 -37500 0
106250 -37500 0
100000 -31250 0
106250 -31250 0
106250 -31250 0
112500 -31250 0
106250 -25000 0
112500 -25000 0
87500 -50000 0
93750 -50000 0
87500 -43750 0
93750 -43750 0
93750 -50000 0
100000 -50000 0
93750 -43750 0
100000 -43750 0
100000 -56250 0
106250 -56250 0
100000 -50000 0
106250 -50000 0
106250 -56250 0
112500 -56250 0
106250 -50000 0
112500 -50000 0
112500 -56250 0
118750 -56250 0
112500 -50000 0
118750 -50000 0
118750 -56250 0
125000 -56250 0
118750 -50000 0
125000 -50000 0
150000 -100000 0
156250 -100000 0
150000 -93750 0
156250 -93750 0
156250 -100000 0
162500 -100000 0
156250 -93750 0
162500 -93750 0
150000 -93750 0
156250 -93750 0
150000 -87500 0
156250 -87500 0
156250 -93750 0
162500 -93750 0
156250 -87500 0
162500 -87500 0
150000 -87500 0
156250 -87500 0
150000 -81250 0
156250 -81250 0
156250 -87500 0
162500 -87500 0
156250 -81250 0
162500 -81250 0
150000 -81250 0
156250 -81250 0
150000 -75000 0
156250 -75000 0
156250 -81250 0
162500 -81250 0
156250 -75000 0
162500 -75000 0
100000 -50000 0
106250 -50000 0
100000 -43750 0
106250 -43750 0
106250 -50000 0
112500 -50000 0
106250 -43750 0
112500 -43750 0
143750 -25000 0
150000 -25000 0
143750 -18750 0
150000 -18750 0
131250 -37500 0
137500 -37500 0
131250 -31250 0
137500 -31250 0
137500 -37500 0
143750 -37500 0
137500 -31250 0
143750 -31250 0
143750 -37500 0
150000 -37500 0
143750 -31250 0
150000 -31250 0
143750 -31250 0
150000 -31250 0
143750 -25000 0
150000 -25000 0
150000 -25000 0
156250 -25000 0
150000 -18750 0
156250 -18750 0
156250 -25000 0
162500 -25000 0
156250 -18750 0
162500 -18750 0
150000 -18750 0
156250 -18750 0
150000 -12500 0
156250 -12500 0
156250 -18750 0
162500 -18750 0
156250 -12500 0
162500 -12500 0
162500 -100000 0
168750 -100000 0
162500 -93750 0
168750 -93750 0
168750 -100000 0
175000 -100000 0
168750 -93750 0
175000 -93750 0
162500 -93750 0
168750 -93750 0
162500 -87500 0
168750 -87500 0
168750 -93750 0
175000 -93750 0
168750 -87500 0
175000 -87500 0
150000 -12500 0
156250 -12500 0
150000 -6250 0
156250 -6250 0
156250 -12500 0
162500 -12500 0
156250 -6250 0
162500 -6250 0
150000 -6250 0
156250 -6250 0
150000 0 0
156250 0 0
156250 -6250 0
162500 -6250 0
156250 0 0
162500 0 0
162500 -87500 0
168750 -87500 0
162500 -81250 0
168750 -81250 0
168750 -87500 0
175000 -87500 0
168750 -81250 0
175000 -81250 0
162500 -81250 0
168750 -81250 0
162500 -75000 0
168750 -75000 0
168750 -81250 0
175000 -81250 0
168750 -75000 0
175000 -75000 0
112500 -50000 0
118750 -50000 0
112500 -43750 0
118750 -43750 0
118750 -50000 0
125000 -50000 0
118750 -43750 0
125000 -43750 0
112500 -43750 0
118750 -43750 0
112500 -37500 0
118750 -37500 0
118750 -43750 0
125000 -43750 0
118750 -37500 0
125000 -37500 0
125000 -25000 0
131250 -25000 0
125000 -18750 0
131250 -18750 0
131250 -25000 0
137500 -25000 0
131250 -18750 0
137500 -18750 0
125000 -18750 0
131250 -18750 0
125000 -12500 0
131250 -12500 0
131250 -18750 0
137500 -18750 0
131250 -12500 0
137500 -12500 0
125000 -50000 0
131250 -50000 0
125000 -43750 0
131250 -43750 0
131250 -50000 0
137500 -50000 0
131250 -43750 0
137500 -43750 0
125000 -43750 0
131250 -43750 0
125000 -37500 0
131250 -37500 0
131250 -43750 0
137500 -43750 0
131250 -37500 0
137500 -37500 0
137500 -50000 0
143750 -50000 0
137500 -43750 0
143750 -43750 0
143750 -50000 0
150000 -50000 0
143750 -43750 0
150000 -43750 0
137500 -43750 0
143750 -43750 0
137500 -37500 0
143750 -37500 0
143750 -43750 0
150000 -43750 0
143750 -37500 0
150000 -37500 0
162500 -12500 0
168750 -12500 0
162500 -6250 0
168750 -6250 0
168750 -12500 0
175000 -12500 0
168750 -6250 0
175000 -6250 0
162500 -6250 0
168750 -6250 0
162500 0 0
168750 0 0
168750 -6250 0
175000 -6250 0
168750 0 0
175000 0 0
125000 -75000 0
131250 -75000 0
125000 -68750 0
131250 -68750 0
131250 -75000 0
137500 -75000 0
131250 -68750 0
137500 -68750 0
125000 -68750 0
131250 -68750 0
125000 -62500 0
131250 -62500 0
131250 -68750 0
137500 -68750 0
131250 -62500 0
137500 -62500 0
137500 -75000 0
143750 -75000 0
137500 -68750 0
143750 -68750 0
143750 -75000 0
150000 -75000 0
143750 -68750 0
150000 -68750 0
137500 -68750 0
143750 -68750 0
137500 -62500 0
143750 -62500 0
143750 -68750 0
150000 -68750 0
143750 -62500 0
150000 -62500 0
125000 -62500 0
131250 -62500 0
125000 -56250 0
131250 -56250 0
131250 -62500 0
137500 -62500 0
131250 -56250 0
137500 -56250 0
125000 -56250 0
131250 -56250 0
125000 -50000 0
131250 -50000 0
131250 -56250 0
137500 -56250 0
131250 -50000 0
137500 -50000 0
137500 -62500 0
143750 -62500 0
137500 -56250 0
143750 -56250 0
143750 -62500 0
150000 -62500 0
143750 -56250 0
150000 -56250 0
137500 -56250 0
143750 -56250 0
137500 -50000 0
143750 -50000 0
143750 -56250 0
150000 -56250 0
143750 -50000 0
150000 -50000 0
175000 -100000 0
181250 -100000 0
175000 -93750 0
181250 -93750 0
181250 -100000 0
187500 -100000 0
181250 -93750 0
187500 -93750 0
175000 -93750 0
181250 -93750 0
175000 -87500 0
181250 -87500 0
181250 -93750 0
187500 -93750 0
181250 -87500 0
187500 -87500 0
187500 -100000 0
193750 -100000 0
187500 -93750 0
193750 -93750 0
193750 -100000 0
200000 -100000 0
193750 -93750 0
200000 -93750 0
187500 -93750 0
193750 -93750 0
187500 -87500 0
193750 -87500 0
193750 -93750 0
200000 -93750 0
193750 -87500 0
200000 -87500 0
175000 -87500 0
181250 -87500 0
175000 -81250 0
181250 -81250 0
181250 -87500 0
187500 -87500 0
181250 -81250 0
187500 -81250 0
175000 -81250 0
181250 -81250 0
175000 -75000 0
181250 -75000 0
181250 -81250 0
187500 -81250 0
181250 -75000 0
187500 -75000 0
187500 -87500 0
193750 -87500 0
187500 -81250 0
193750 -81250 0
193750 -87500 0
200000 -87500 0
193750 -81250 0
200000 -81250 0
187500 -81250 0
193750 -81250 0
187500 -75000 0
193750 -75000 0
193750 -81250 0
200000 -81250 0
193750 -75000 0
200000 -75000 0
150000 -75000 0
156250 -75000 0
150000 -68750 0
156250 -68750 0
156250 -75000 0
162500 -75000 0
156250 -68750 0
162500 -68750 0
150000 -68750 0
156250 -68750 0
150000 -62500 0
156250 -62500 0
156250 -68750 0
162500 -68750 0
156250 -62500 0
162500 -62500 0
162500 -75000 0
168750 -75000 0
162500 -68750 0
168750 -68750 0
168750 -75000 0
175000 -75000 0
168750 -68750 0
175000 -68750 0
162500 -68750 0
168750 -68750 0
162500 -62500 0
168750 -62500 0
168750 -68750 0
175000 -68750 0
168750 -62500 0
175000 -62500 0
175000 -75000 0
181250 -75000 0
175000 -68750 0
181250 -68750 0
181250 -75000 0
187500 -75000 0
181250 -68750 0
187500 -68750 0
175000 -68750 0
181250 -68750 0
175000 -62500 0
181250 -62500 0
181250 -68750 0
187500 -68750 0
181250 -62500 0
187500 -62500 0
150000 -37500 0
156250 -37500 0
150000 -31250 0
156250 -31250 0
156250 -37500 0
162500 -37500 0
156250 -31250 0
162500 -31250 0
150000 -31250 0
156250 -31250 0
150000 -25000 0
156250 -25000 0
156250 -31250 0
162500 -31250 0
156250 -25000 0
162500 -25000 0
162500 -37500 0
168750 -37500 0
162500 -31250 0
168750 -31250 0
168750 -37500 0
175000 -37500 0
168750 -31250 0
175000 -31250 0
162500 -31250 0
168750 -31250 0
162500 -25000 0
168750 -25000 0
168750 -31250 0
175000 -31250 0
168750 -25000 0
175000 -25000 0
175000 -37500 0
181250 -37500 0
175000 -31250 0
181250 -31250 0
181250 -37500 0
187500 -37500 0
181250 -31250 0
187500 -31250 0
175000 -31250 0
181250 -31250 0
175000 -25000 0
181250 -25000 0
181250 -31250 0
187500 -31250 0
181250 -25000 0
187500 -25000 0
175000 -25000 0
181250 -25000 0
175000 -18750 0
181250 -18750 0
181250 -25000 0
187500 -25000 0
181250 -18750 0
187500 -18750 0
175000 -18750 0
181250 -18750 0
175000 -12500 0
181250 -12500 0
181250 -18750 0
187500 -18750 0
181250 -12500 0
187500 -12500 0
187500 -25000 0
193750 -25000 0
187500 -18750 0
193750 -18750 0
193750 -25000 0
200000 -25000 0
193750 -18750 0
200000 -18750 0
187500 -18750 0
193750 -18750 0
187500 -12500 0
193750 -12500 0
193750 -18750 0
200000 -18750 0
193750 -12500 0
200000 -12500 0
175000 -12500 0
181250 -12500 0
175000 -6250 0
181250 -6250 0
181250 -12500 0
187500 -12500 0
181250 -6250 0
187500 -6250 0
175000 -6250 0
181250 -6250 0
175000 0 0
181250 0 0
181250 -6250 0
187500 -6250 0
181250 0 0
187500 0 0
187500 -12500 0
193750 -12500 0
187500 -6250 0
193750 -6250 0
193750 -12500 0
200000 -12500 0
193750 -6250 0
200000 -6250 0
187500 -6250 0
193750 -6250 0
187500 0 0
193750 0 0
193750 -6250 0
200000 -6250 0
[...]
POINT_DATA 26120
SCALARS history_field_xz double 1
LOOKUP_TABLE default
-3.62611e+06 -3.62611e+06 -4.23523e+06 -4.23523e+06 1.31101e+06 1.31101e+06 -5798.11 -5798.11 3.68465e+06 3.68465e+06 1.00838e+07 1.00838e+07 1.2598e+07 1.2598e+07 1.54271e+07 1.54271e+07 3.16759e+06 3.16759e+06 7.59726e+06 7.59726e+06 2.6812e+06 2.6812e+06 5.85745e+06 5.85745e+06 5.88076e+06 5.88076e+06 4.01666e+06 4.01666e+06 -7.15614e+06 -7.15614e+06 -4.194e+06 -4.194e+06 -3.82702e+06 -3.82702e+06 -1.70122e+06 -1.70122e+06 -2.82959e+06 -2.82959e+06 2.18202e+06 2.18202e+06 -1.20267e+06 -1.20267e+06 2.00079e+06 2.00079e+06 9.27966e+06 9.27966e+06 1.72873e+06 1.72873e+06 6.88577e+06 6.88577e+06 -1.02763e+07 -1.02763e+07 4.12784e+06 4.12784e+06 -9.75068e+06 -9.75068e+06 4.26235e+06 4.26235e+06 -7.29233e+06 -7.29233e+06 -1.08736e+07 -1.08736e+07 -2.04826e+07 -2.04826e+07 2.15121e+07 2.15121e+07 2.24516e+07 2.24516e+07 2.1593e+07 2.1593e+07 2.25787e+07 2.25787e+07 1.85754e+07 1.85754e+07 1.89134e+07 1.89134e+07 2.12091e+07 2.12091e+07 2.00542e+07 2.00542e+07 2.03632e+07 2.03632e+07 1.81196e+07 1.81196e+07 1.64888e+07 1.64888e+07 1.49981e+07 1.49981e+07 2.55311e+07 2.55311e+07 2.11209e+07 2.11209e+07 2.14287e+07 2.14287e+07 1.97626e+07 1.97626e+07 -1.32291e+07 -1.32291e+07 -1.46988e+07 -1.46988e+07 -7.35375e+06 -7.35375e+06 -1.13812e+07 -1.13812e+07 -1.07553e+07 -1.07553e+07 -1.39372e+07 -1.39372e+07 4.0614e+06 4.0614e+06 -4.70572e+06 -4.70572e+06 3.5643e+06 3.5643e+06 -4.07706e+06 -4.07706e+06 1.03145e+07 1.03145e+07 4.61534e+06 4.61534e+06 8.45889e+06 8.45889e+06 3.60922e+06 3.60922e+06 8.52652e+06 8.52652e+06 4.55281e+06 4.55281e+06 6.87811e+06 6.87811e+06 3.28485e+06 3.28485e+06 1.08657e+07 1.08657e+07 1.08216e+07 1.08216e+07 7.99777e+06 7.99777e+06 8.52784e+06 8.52784e+06 -2.5758e+07 -2.5758e+07 -1.92407e+07 -1.92407e+07 2.16432e+07 2.16432e+07 6.29979e+07 6.29979e+07 -8.96811e+06 -8.96811e+06 4.47868e+06 4.47868e+06 -6.55412e+06 -6.55412e+06 4.80878e+06 4.80878e+06 -1.20453e+07 -1.20453e+07 -4.45219e+06 -4.45219e+06 -8.84337e+06 -8.84337e+06 -2.29936e+06 -2.29936e+06 -7.76028e+06 -7.76028e+06 -4.81806e+06 -4.81806e+06 -5.6485e+06 -5.6485e+06 -3.65019e+06 -3.65019e+06 -1.45951e+07 -1.45951e+07 1.09647e+07 1.09647e+07 1.27574e+07 1.27574e+07 4.42059e+07 4.42059e+07 -8.49155e+06 -8.49155e+06 1.05894e+07 1.05894e+07 -5.85069e+06 -5.85069e+06 9.9324e+06 9.9324e+06 -5.80745e+06 -5.80745e+06 7.90034e+06 7.90034e+06 -3.99074e+06 -3.99074e+06 6.58913e+06 6.58913e+06 9.27204e+06 9.27204e+06 2.35649e+07 2.35649e+07 -2.08639e+07 -2.08639e+07 -2.10126e+07 -2.10126e+07 -1.81825e+07 -1.81825e+07 -1.70001e+07 -1.70001e+07 -1.25372e+07 -1.25372e+07 -7.07678e+06 -7.07678e+06 -8.95246e+06 -8.95246e+06 -4.67907e+06 -4.67907e+06 1.85664e+07 1.85664e+07 2.22462e+07 2.22462e+07 2.23749e+07 2.23749e+07 2.25096e+07 2.25096e+07 1.42084e+07 1.42084e+07 1.44783e+07 1.44783e+07 7.78725e+06 7.78725e+06 1.17608e+07 1.17608e+07 3.67964e+06 3.67964e+06 8.10659e+06 8.10659e+06 4.61548e+06 4.61548e+06 7.42839e+06 7.42839e+06 1.81007e+07 1.81007e+07 2.12874e+07 2.12874e+07 1.57442e+07 1.57442e+07 1.80022e+07 1.80022e+07 3.91453e+06 3.91453e+06 1.3038e+07 1.3038e+07 4.41622e+06 4.41622e+06 1.19025e+07 1.19025e+07 1.06976e+07 1.06976e+07 1.64525e+07 1.64525e+07 9.5621e+06 9.5621e+06 1.35176e+07 1.35176e+07 1.64525e+07 1.64525e+07 2.16169e+07 2.16169e+07 1.35176e+07 1.35176e+07 1.67346e+07 1.67346e+07 1.95444e+07 1.95444e+07 2.61226e+07 2.61226e+07 1.46621e+07 1.46621e+07 1.94988e+07 1.94988e+07 -3.86465e+07 -3.86465e+07 -3.73635e+07 -3.73635e+07 -3.31493e+07 -3.31493e+07 -3.23344e+07 -3.23344e+07 -2.46587e+07 -2.46587e+07 -2.33533e+07 -2.33533e+07 -1.96296e+07 -1.96296e+07 -1.90193e+07 -1.90193e+07 -1.47164e+07 -1.47164e+07 -1.70543e+07 -1.70543e+07 -1.20684e+07 -1.20684e+07 -1.44118e+07 -1.44118e+07 -1.193e+07 -1.193e+07 -1.27705e+07 -1.27705e+07 -9.28749e+06 -9.28749e+06 -1.03183e+07 -1.03183e+07 -9.00208e+06 -9.00208e+06 -1.0515e+07 -1.0515e+07 -7.16123e+06 -7.16123e+06 -8.71483e+06 -8.71483e+06 -1.05105e+07 -1.05105e+07 -1.01381e+07 -1.01381e+07 -8.71029e+06 -8.71029e+06 -8.44681e+06 -8.44681e+06 -1.4643e+07 -1.4643e+07 -1.34902e+07 -1.34902e+07 -1.21909e+07 -1.21909e+07 -1.12177e+07 -1.12177e+07 -180436 -180436 304474 304474 2.09207e+06 2.09207e+06 304474 304474 835950 835950 -531526 -531526 2.52724e+06 2.52724e+06 1.17592e+06 1.17592e+06 462865 462865 1.05228e+06 1.05228e+06 2.17031e+06 2.17031e+06 1.05228e+06 1.05228e+06 -8.53712e+06 -8.53712e+06 -6.58363e+06 -6.58363e+06 -5.16285e+06 -5.16285e+06 -4.88811e+06 -4.88811e+06 -4.72726e+06 -4.72726e+06 -3.58368e+06 -3.58368e+06 -3.03174e+06 -3.03174e+06 -1.5885e+06 -1.5885e+06 -7.90676e+06 -7.90676e+06 -4.50117e+06 -4.50117e+06 -5.50905e+06 -5.50905e+06 -3.13968e+06 -3.13968e+06 -1.13367e+06 -1.13367e+06 3.57255e+06 3.57255e+06 227811 227811 3.61381e+06 3.61381e+06 -4.52371e+06 -4.52371e+06 -2.05421e+06 -2.05421e+06 -2.52853e+06 -2.52853e+06 -1.36738e+06 -1.36738e+06 -132228 -132228 4.22513e+06 4.22513e+06 554601 554601 4.22513e+06 4.22513e+06 2.78289e+07 2.78289e+07 3.21957e+07 3.21957e+07 2.34309e+07 2.34309e+07 2.70411e+07 2.70411e+07 3.09948e+07 3.09948e+07 3.41676e+07 3.41676e+07 2.58402e+07 2.58402e+07 2.85128e+07 2.85128e+07 3.41676e+07 3.41676e+07 3.61631e+07 3.61631e+07 2.85128e+07 2.85128e+07 3.00973e+07 3.00973e+07 3.74125e+07 3.74125e+07 3.78758e+07 3.78758e+07 3.13466e+07 3.13466e+07 3.16907e+07 3.16907e+07 -2.41819e+06 -2.41819e+06 -2.45635e+06 -2.45635e+06 -810024 -810024 -1.51145e+06 -1.51145e+06 -3.26985e+06 -3.26985e+06 -3.03631e+06 -3.03631e+06 -2.32495e+06 -2.32495e+06 -1.52142e+06 -1.52142e+06 -3.03631e+06 -3.03631e+06 -2.51877e+06 -2.51877e+06 -1.52142e+06 -1.52142e+06 -1.71789e+06 -1.71789e+06 1.04432e+06 1.04432e+06 1.59842e+06 1.59842e+06 1.84521e+06 1.84521e+06 1.59842e+06 1.59842e+06 4.92341e+06 4.92341e+06 1.0526e+07 1.0526e+07 4.96467e+06 4.96467e+06 9.85638e+06 9.85638e+06 1.08364e+07 1.08364e+07 1.65917e+07 1.65917e+07 1.01668e+07 1.01668e+07 1.44409e+07 1.44409e+07 1.16716e+07 1.16716e+07 1.1382e+07 1.1382e+07 1.00145e+07 1.00145e+07 1.04425e+07 1.04425e+07 1.14064e+07 1.14064e+07 1.28741e+07 1.28741e+07 1.04669e+07 1.04669e+07 1.09801e+07 1.09801e+07 1.62592e+07 1.62592e+07 1.79985e+07 1.79985e+07 1.62592e+07 1.62592e+07 1.5363e+07 1.5363e+07 1.50549e+07 1.50549e+07 1.43083e+07 1.43083e+07 1.24194e+07 1.24194e+07 1.16855e+07 1.16855e+07 8.62892e+06 8.62892e+06 8.37386e+06 8.37386e+06 6.73488e+06 6.73488e+06 6.36733e+06 6.36733e+06 1.11658e+07 1.11658e+07 1.07036e+07 1.07036e+07 9.15925e+06 9.15925e+06 8.80566e+06 8.80566e+06 5.68388e+06 5.68388e+06 8.31991e+06 8.31991e+06 5.68388e+06 5.68388e+06 6.8049e+06 6.8049e+06 1.00407e+07 1.00407e+07 1.10881e+07 1.10881e+07 8.52569e+06 8.52569e+06 1.10881e+07 1.10881e+07 4.78662e+06 4.78662e+06 6.83366e+06 6.83366e+06 4.78662e+06 4.78662e+06 5.97661e+06 5.97661e+06 6.83366e+06 6.83366e+06 8.09953e+06 8.09953e+06 5.97661e+06 5.97661e+06 6.44244e+06 6.44244e+06 5.06373e+06 5.06373e+06 6.02322e+06 6.02322e+06 5.06373e+06 5.06373e+06 4.88506e+06 4.88506e+06 7.42248e+06 7.42248e+06 8.02249e+06 8.02249e+06 6.28432e+06 6.28432e+06 6.72635e+06 6.72635e+06 4.46784e+06 4.46784e+06 5.39568e+06 5.39568e+06 4.46784e+06 4.46784e+06 4.91517e+06 4.91517e+06 4.13417e+06 4.13417e+06 3.94264e+06 3.94264e+06 3.65365e+06 3.65365e+06 3.94264e+06 3.94264e+06 6.62511e+06 6.62511e+06 6.96151e+06 6.96151e+06 5.32897e+06 5.32897e+06 6.02088e+06 6.02088e+06 8.35701e+06 8.35701e+06 8.52983e+06 8.52983e+06 7.41638e+06 7.41638e+06 6.84298e+06 6.84298e+06 -4.78825e+08 -4.78825e+08 -4.78807e+08 -4.78807e+08 -4.52609e+08 -4.52609e+08 -4.52509e+08 -4.52509e+08 -4.22067e+08 -4.22067e+08 -4.37927e+08 -4.37927e+08 -4.04566e+08 -4.04566e+08 -4.23389e+08 -4.23389e+08 -3.39847e+08 -3.39847e+08 -3.40689e+08 -3.40689e+08 -3.22376e+08 -3.22376e+08 -3.23103e+08 -3.23103e+08 -3.40689e+08 -3.40689e+08 -3.41585e+08 -3.41585e+08 -3.23103e+08 -3.23103e+08 -3.23906e+08 -3.23906e+08 -3.94419e+08 -3.94419e+08 -3.96762e+08 -3.96762e+08 -3.76041e+08 -3.76041e+08 -3.77539e+08 -3.77539e+08 -3.89167e+08 -3.89167e+08 -3.91968e+08 -3.91968e+08 -3.65247e+08 -3.65247e+08 -3.68331e+08 -3.68331e+08 -3.44149e+08 -3.44149e+08 -3.46112e+08 -3.46112e+08 -3.26047e+08 -3.26047e+08 -3.27313e+08 -3.27313e+08 -3.46112e+08 -3.46112e+08 -3.48294e+08 -3.48294e+08 -3.27313e+08 -3.27313e+08 -3.28607e+08 -3.28607e+08 -2.85194e+08 -2.85194e+08 -2.89944e+08 -2.89944e+08 -2.69504e+08 -2.69504e+08 -2.73818e+08 -2.73818e+08 -2.89944e+08 -2.89944e+08 -2.9479e+08 -2.9479e+08 -2.73818e+08 -2.73818e+08 -2.78004e+08 -2.78004e+08 -2.60239e+08 -2.60239e+08 -2.63799e+08 -2.63799e+08 -2.34726e+08 -2.34726e+08 -2.39268e+08 -2.39268e+08 -2.63799e+08 -2.63799e+08 -2.67098e+08 -2.67098e+08 -2.24497e+08 -2.24497e+08 -2.31079e+08 -2.31079e+08 -2.93572e+08 -2.93572e+08 -3.01204e+08 -3.01204e+08 -2.77654e+08 -2.77654e+08 -2.83965e+08 -2.83965e+08 -3.01204e+08 -3.01204e+08 -3.09126e+08 -3.09126e+08 -2.79899e+08 -2.79899e+08 -2.88748e+08 -2.88748e+08 -2.62225e+08 -2.62225e+08 -2.74173e+08 -2.74173e+08 -2.68786e+08 -2.68786e+08 -2.88724e+08 -2.88724e+08 -4.03231e+08 -4.03231e+08 -4.22407e+08 -4.22407e+08 -3.73952e+08 -3.73952e+08 -3.90255e+08 -3.90255e+08 -5.45668e+08 -5.45668e+08 -5.62501e+08 -5.62501e+08 -5.12048e+08 -5.12048e+08 -5.26911e+08 -5.26911e+08 -4.93695e+08 -4.93695e+08 -5.04137e+08 -5.04137e+08 -4.67565e+08 -4.67565e+08 -4.73156e+08 -4.73156e+08 -4.58412e+08 -4.58412e+08 -4.62386e+08 -4.62386e+08 -4.2859e+08 -4.2859e+08 -4.31773e+08 -4.31773e+08 -4.17054e+08 -4.17054e+08 -4.19744e+08 -4.19744e+08 -4.31773e+08 -4.31773e+08 -4.33369e+08 -4.33369e+08 -4.11697e+08 -4.11697e+08 -4.11902e+08 -4.11902e+08 -3.96076e+08 -3.96076e+08 -3.96067e+08 -3.96067e+08 -3.84443e+08 -3.84443e+08 -3.8012e+08 -3.8012e+08 -3.88834e+08 -3.88834e+08 -3.86448e+08 -3.86448e+08 -3.57901e+08 -3.57901e+08 -3.55044e+08 -3.55044e+08 -4.38166e+08 -4.38166e+08 -4.35159e+08 -4.35159e+08 -3.95074e+08 -3.95074e+08 -3.91559e+08 -3.91559e+08 -4.07898e+08 -4.07898e+08 -4.02281e+08 -4.02281e+08 -3.80736e+08 -3.80736e+08 -3.75215e+08 -3.75215e+08 -2.60415e+08 -2.60415e+08 -2.55987e+08 -2.55987e+08 -2.80557e+08 -2.80557e+08 -2.75305e+08 -2.75305e+08 -2.54888e+08 -2.54888e+08 -2.5145e+08 -2.5145e+08 -2.59577e+08 -2.59577e+08 -2.62805e+08 -2.62805e+08 -2.58708e+08 -2.58708e+08 -2.60389e+08 -2.60389e+08 -2.41523e+08 -2.41523e+08 -2.41012e+08 -2.41012e+08 -2.20812e+08 -2.20812e+08 -2.2439e+08 -2.2439e+08 -2.61921e+08 -2.61921e+08 -2.62612e+08 -2.62612e+08 -2.40933e+08 -2.40933e+08 -2.49917e+08 -2.49917e+08 -2.61872e+08 -2.61872e+08 -2.67233e+08 -2.67233e+08 -2.34328e+08 -2.34328e+08 -2.39066e+08 -2.39066e+08 -2.19838e+08 -2.19838e+08 -2.24242e+08 -2.24242e+08 -2.22956e+08 -2.22956e+08 -2.28816e+08 -2.28816e+08 -2.44076e+07 -2.44076e+07 -1.54628e+07 -1.54628e+07 -1.25226e+08 -1.25226e+08 -1.61241e+08 -1.61241e+08 -1.1902e+08 -1.1902e+08 -1.50961e+08 -1.50961e+08 -7.18749e+07 -7.18749e+07 -8.96593e+07 -8.96593e+07 -2.83185e+08 -2.83185e+08 -3.05823e+08 -3.05823e+08 -2.64751e+08 -2.64751e+08 -2.84864e+08 -2.84864e+08 -3.05823e+08 -3.05823e+08 -3.28194e+08 -3.28194e+08 -2.84864e+08 -2.84864e+08 -3.03703e+08 -3.03703e+08 -2.05418e+08 -2.05418e+08 -2.06381e+08 -2.06381e+08 -2.03706e+08 -2.03706e+08 -2.05088e+08 -2.05088e+08 -2.41647e+08 -2.41647e+08 -2.39289e+08 -2.39289e+08 -2.17014e+08 -2.17014e+08 -2.1473e+08 -2.1473e+08 -2.33874e+08 -2.33874e+08 -2.28995e+08 -2.28995e+08 -2.1473e+08 -2.1473e+08 -2.1251e+08 -2.1251e+08 -2.0363e+08 -2.0363e+08 -2.0135e+08 -2.0135e+08 -1.99549e+08 -1.99549e+08 -2.04906e+08 -2.04906e+08 -6.98949e+07 -6.98949e+07 -8.30548e+07 -8.30548e+07 -2.95601e+08 -2.95601e+08 -3.02108e+08 -3.02108e+08 -2.86256e+08 -2.86256e+08 -2.89449e+08 -2.89449e+08 -2.76051e+08 -2.76051e+08 -2.77242e+08 -2.77242e+08 -2.77242e+08 -2.77242e+08 -2.75392e+08 -2.75392e+08 -2.49204e+08 -2.49204e+08 -2.43122e+08 -2.43122e+08 -2.61575e+08 -2.61575e+08 -2.61138e+08 -2.61138e+08 -2.51499e+08 -2.51499e+08 -2.52213e+08 -2.52213e+08 -2.61138e+08 -2.61138e+08 -2.59133e+08 -2.59133e+08 -2.27574e+08 -2.27574e+08 -2.24953e+08 -2.24953e+08 -2.1797e+08 -2.1797e+08 -2.16088e+08 -2.16088e+08 -2.17146e+08 -2.17146e+08 -2.13902e+08 -2.13902e+08 -2.46197e+08 -2.46197e+08 -2.39185e+08 -2.39185e+08 -1.68469e+08 -1.68469e+08 -1.57396e+08 -1.57396e+08 -1.76202e+08 -1.76202e+08 -1.624e+08 -1.624e+08 -1.57396e+08 -1.57396e+08 -1.44173e+08 -1.44173e+08 -1.51629e+08 -1.51629e+08 -1.40639e+08 -1.40639e+08 -1.93396e+08 -1.93396e+08 -1.83124e+08 -1.83124e+08 -2.28498e+08 -2.28498e+08 -2.33736e+08 -2.33736e+08 -2.09266e+08 -2.09266e+08 -2.15263e+08 -2.15263e+08 -1.75272e+08 -1.75272e+08 -1.7366e+08 -1.7366e+08 -1.61506e+08 -1.61506e+08 -1.59993e+08 -1.59993e+08 -3.62063e+07 -3.62063e+07 -2.6912e+07 -2.6912e+07 -2.61442e+07 -2.61442e+07 -1.36491e+07 -1.36491e+07 -1.68346e+08 -1.68346e+08 -1.49848e+08 -1.49848e+08 -1.44581e+08 -1.44581e+08 -1.2517e+08 -1.2517e+08 -1.49848e+08 -1.49848e+08 -1.27266e+08 -1.27266e+08 -1.27758e+08 -1.27758e+08 -1.05663e+08 -1.05663e+08 -1.65106e+08 -1.65106e+08 -1.60232e+08 -1.60232e+08 -1.43769e+08 -1.43769e+08 -1.39957e+08 -1.39957e+08 -1.60232e+08 -1.60232e+08 -1.50238e+08 -1.50238e+08 -9.32843e+07 -9.32843e+07 -1.0325e+08 -1.0325e+08 -3.4578e+07 -3.4578e+07 -3.15166e+07 -3.15166e+07 -3.01502e+07 -3.01502e+07 -2.52335e+07 -2.52335e+07 -3.15166e+07 -3.15166e+07 -2.77029e+07 -2.77029e+07 -3.67028e+07 -3.67028e+07 -2.87487e+07 -2.87487e+07 -2.73627e+07 -2.73627e+07 -1.92509e+07 -1.92509e+07 -1.8691e+07 -1.8691e+07 -8.43911e+06 -8.43911e+06 -1.92509e+07 -1.92509e+07 -1.05473e+07 -1.05473e+07 3.02631e+07 3.02631e+07 7.30438e+07 7.30438e+07 5.0649e+07 5.0649e+07 8.75194e+07 8.75194e+07 4.27195e+06 4.27195e+06 2.62731e+07 2.62731e+07 6.03067e+06 6.03067e+06 2.4465e+07 2.4465e+07 8.23747e+07 8.23747e+07 1.07095e+08 1.07095e+08 7.98349e+07 7.98349e+07 1.01073e+08 1.01073e+08 7.43968e+07 7.43968e+07 9.49219e+07 9.49219e+07 7.08226e+07 7.08226e+07 8.50596e+07 8.50596e+07 6.32658e+07 6.32658e+07 7.97158e+07 7.97158e+07 6.18334e+07 6.18334e+07 7.12031e+07 7.12031e+07 5.68309e+07 5.68309e+07 6.6586e+07 6.6586e+07 4.88406e+07 4.88406e+07 5.68777e+07 5.68777e+07 6.6586e+07 6.6586e+07 7.55077e+07 7.55077e+07 6.68422e+07 6.68422e+07 6.58419e+07 6.58419e+07 7.90569e+07 7.90569e+07 7.75701e+07 7.75701e+07 6.93619e+07 6.93619e+07 5.77674e+07 5.77674e+07 -1.18128e+08 -1.18128e+08 -9.49987e+07 -9.49987e+07 -9.53161e+07 -9.53161e+07 -6.91869e+07 -6.91869e+07 5.09862e+07 5.09862e+07 9.38457e+07 9.38457e+07 2.45863e+07 2.45863e+07 1.02686e+07 1.02686e+07 3.23321e+07 3.23321e+07 1.79409e+07 1.79409e+07 6.60694e+07 6.60694e+07 5.68658e+07 5.68658e+07 7.83433e+07 7.83433e+07 1.18629e+08 1.18629e+08 6.90801e+07 6.90801e+07 1.01885e+08 1.01885e+08 7.89802e+07 7.89802e+07 6.86757e+07 6.86757e+07 5.36238e+07 5.36238e+07 5.43378e+07 5.43378e+07 1.5684e+08 1.5684e+08 2.06385e+08 2.06385e+08 1.64976e+08 1.64976e+08 1.97398e+08 1.97398e+08 1.4784e+08 1.4784e+08 1.78751e+08 1.78751e+08 4.65981e+07 4.65981e+07 4.71643e+07 4.71643e+07 3.99073e+07 3.99073e+07 4.03577e+07 4.03577e+07 5.06473e+07 5.06473e+07 4.91964e+07 4.91964e+07 4.26735e+07 4.26735e+07 4.35666e+07 4.35666e+07 1.81044e+08 1.81044e+08 2.08581e+08 2.08581e+08 1.58626e+08 1.58626e+08 1.81602e+08 1.81602e+08 1.80739e+08 1.80739e+08 2.02022e+08 2.02022e+08 1.61674e+08 1.61674e+08 1.82159e+08 1.82159e+08 2.15377e+08 2.15377e+08 2.25479e+08 2.25479e+08 1.91784e+08 1.91784e+08 2.0114e+08 2.0114e+08 2.0114e+08 2.0114e+08 2.0872e+08 2.0872e+08 1.64599e+08 1.64599e+08 1.72091e+08 1.72091e+08 1.77917e+08 1.77917e+08 1.88729e+08 1.88729e+08 1.60971e+08 1.60971e+08 1.68501e+08 1.68501e+08 2.14483e+08 2.14483e+08 2.19815e+08 2.19815e+08 2.2735e+08 2.2735e+08 2.3663e+08 2.3663e+08 2.05815e+08 2.05815e+08 2.14963e+08 2.14963e+08 2.3663e+08 2.3663e+08 2.44241e+08 2.44241e+08 2.14963e+08 2.14963e+08 2.20967e+08 2.20967e+08 2.43214e+08 2.43214e+08 2.45984e+08 2.45984e+08 2.1994e+08 2.1994e+08 2.22924e+08 2.22924e+08 2.45984e+08 2.45984e+08 2.46473e+08 2.46473e+08 2.22924e+08 2.22924e+08 2.22316e+08 2.22316e+08 -1.55656e+08 -1.55656e+08 -1.57912e+08 -1.57912e+08 -1.41199e+08 -1.41199e+08 -1.43475e+08 -1.43475e+08 -1.57912e+08 -1.57912e+08 -1.59121e+08 -1.59121e+08 -1.43475e+08 -1.43475e+08 -1.44743e+08 -1.44743e+08 -1.88976e+08 -1.88976e+08 -1.88476e+08 -1.88476e+08 -1.72545e+08 -1.72545e+08 -1.72043e+08 -1.72043e+08 -1.88476e+08 -1.88476e+08 -1.86848e+08 -1.86848e+08 -1.72043e+08 -1.72043e+08 -1.70461e+08 -1.70461e+08 -1.84634e+08 -1.84634e+08 -1.83911e+08 -1.83911e+08 -1.70256e+08 -1.70256e+08 -1.69623e+08 -1.69623e+08 -1.83911e+08 -1.83911e+08 -1.82125e+08 -1.82125e+08 -1.69623e+08 -1.69623e+08 -1.67963e+08 -1.67963e+08 -2.13764e+08 -2.13764e+08 -2.089e+08 -2.089e+08 -1.97378e+08 -1.97378e+08 -1.92604e+08 -1.92604e+08 -2.089e+08 -2.089e+08 -2.02813e+08 -2.02813e+08 -1.92604e+08 -1.92604e+08 -1.8665e+08 -1.8665e+08 -1.83477e+08 -1.83477e+08 -1.79039e+08 -1.79039e+08 -1.69314e+08 -1.69314e+08 -1.65047e+08 -1.65047e+08 -1.79039e+08 -1.79039e+08 -1.73473e+08 -1.73473e+08 -1.65047e+08 -1.65047e+08 -1.59708e+08 -1.59708e+08 1.67934e+08 1.67934e+08 1.70442e+08 1.70442e+08 -1.96231e+08 -1.96231e+08 -1.91081e+08 -1.91081e+08 -1.82421e+08 -1.82421e+08 -1.77458e+08 -1.77458e+08 -1.91081e+08 -1.91081e+08 -1.84573e+08 -1.84573e+08 -1.70349e+08 -1.70349e+08 -1.64046e+08 -1.64046e+08 1.75199e+08 1.75199e+08 1.77035e+08 1.77035e+08 -1.65029e+08 -1.65029e+08 -1.6026e+08 -1.6026e+08 -1.51264e+08 -1.51264e+08 -1.46783e+08 -1.46783e+08 -1.5566e+08 -1.5566e+08 -1.48505e+08 -1.48505e+08 -1.42184e+08 -1.42184e+08 -1.35394e+08 -1.35394e+08 -1.78592e+08 -1.78592e+08 -1.69415e+08 -1.69415e+08 -1.62873e+08 -1.62873e+08 -1.54046e+08 -1.54046e+08 -1.7176e+08 -1.7176e+08 -1.61718e+08 -1.61718e+08 -1.56391e+08 -1.56391e+08 -1.4682e+08 -1.4682e+08 -1.53779e+08 -1.53779e+08 -1.46043e+08 -1.46043e+08 -1.40668e+08 -1.40668e+08 -1.33388e+08 -1.33388e+08 -1.40095e+08 -1.40095e+08 -1.30604e+08 -1.30604e+08 -1.27439e+08 -1.27439e+08 -1.18523e+08 -1.18523e+08 -1.58911e+08 -1.58911e+08 -1.46755e+08 -1.46755e+08 -1.44013e+08 -1.44013e+08 -1.32506e+08 -1.32506e+08 -1.42249e+08 -1.42249e+08 -1.31923e+08 -1.31923e+08 -1.28001e+08 -1.28001e+08 -1.18415e+08 -1.18415e+08 -1.3222e+08 -1.3222e+08 -1.24831e+08 -1.24831e+08 -1.20139e+08 -1.20139e+08 -1.13495e+08 -1.13495e+08 -1.14136e+08 -1.14136e+08 -1.04444e+08 -1.04444e+08 -1.028e+08 -1.028e+08 -9.39956e+07 -9.39956e+07 -1.29898e+08 -1.29898e+08 -1.1691e+08 -1.1691e+08 -1.1639e+08 -1.1639e+08 -1.04357e+08 -1.04357e+08 -1.1983e+08 -1.1983e+08 -1.05419e+08 -1.05419e+08 -1.07277e+08 -1.07277e+08 -9.41879e+07 -9.41879e+07 -1.1574e+08 -1.1574e+08 -1.05285e+08 -1.05285e+08 -1.05292e+08 -1.05292e+08 -9.55143e+07 -9.55143e+07 -9.33878e+07 -9.33878e+07 -8.08904e+07 -8.08904e+07 -8.36169e+07 -8.36169e+07 -7.20081e+07 -7.20081e+07 -1.0153e+08 -1.0153e+08 -8.44223e+07 -8.44223e+07 -9.02992e+07 -9.02992e+07 -7.42371e+07 -7.42371e+07 -8.92798e+07 -8.92798e+07 -7.05569e+07 -7.05569e+07 -7.90946e+07 -7.90946e+07 -6.23484e+07 -6.23484e+07 -1.7688e+08 -1.7688e+08 -1.80422e+08 -1.80422e+08 -1.6439e+08 -1.6439e+08 -1.67956e+08 -1.67956e+08 -1.67519e+08 -1.67519e+08 -1.69226e+08 -1.69226e+08 -1.55053e+08 -1.55053e+08 -1.56837e+08 -1.56837e+08 -1.47071e+08 -1.47071e+08 -1.49824e+08 -1.49824e+08 -1.36458e+08 -1.36458e+08 -1.39001e+08 -1.39001e+08 -9.19745e+07 -9.19745e+07 -9.20719e+07 -9.20719e+07 -8.11514e+07 -8.11514e+07 -8.15751e+07 -8.15751e+07 -1.15921e+08 -1.15921e+08 -1.14885e+08 -1.14885e+08 -1.03532e+08 -1.03532e+08 -1.0261e+08 -1.0261e+08 -1.17578e+08 -1.17578e+08 -1.15322e+08 -1.15322e+08 -1.05302e+08 -1.05302e+08 -1.03201e+08 -1.03201e+08 -9.73083e+07 -9.73083e+07 -9.63016e+07 -9.63016e+07 -8.68114e+07 -8.68114e+07 -8.59215e+07 -8.59215e+07 -9.1298e+07 -9.1298e+07 -9.01045e+07 -9.01045e+07 -8.0918e+07 -8.0918e+07 -7.99142e+07 -7.99142e+07 -7.5374e+07 -7.5374e+07 -7.50573e+07 -7.50573e+07 -6.57274e+07 -6.57274e+07 -6.60255e+07 -6.60255e+07 -7.62012e+07 -7.62012e+07 -7.54093e+07 -7.54093e+07 