# vtk DataFile Version 3.0
#This file was generated by the deal.II library on 2016/5/13 at 16:44:15
ASCII
DATASET UNSTRUCTURED_GRID

POINTS 18272 double
162500 -100000 0
175000 -100000 0
162500 -87500 0
175000 -87500 0
162500 -87500 0
175000 -87500 0
162500 -75000 0
175000 -75000 0
112500 -50000 0
125000 -50000 0
112500 -37500 0
125000 -37500 0
125000 -25000 0
137500 -25000 0
125000 -12500 0
137500 -12500 0
125000 -50000 0
137500 -50000 0
125000 -37500 0
137500 -37500 0
137500 -50000 0
150000 -50000 0
137500 -37500 0
150000 -37500 0
162500 -12500 0
175000 -12500 0
162500 0 0
175000 0 0
125000 -75000 0
137500 -75000 0
125000 -62500 0
137500 -62500 0
137500 -75000 0
150000 -75000 0
137500 -62500 0
150000 -62500 0
125000 -62500 0
137500 -62500 0
125000 -50000 0
137500 -50000 0
137500 -62500 0
150000 -62500 0
137500 -50000 0
150000 -50000 0
175000 -100000 0
187500 -100000 0
175000 -87500 0
187500 -87500 0
187500 -100000 0
200000 -100000 0
187500 -87500 0
200000 -87500 0
175000 -87500 0
187500 -87500 0
175000 -75000 0
187500 -75000 0
187500 -87500 0
200000 -87500 0
187500 -75000 0
200000 -75000 0
150000 -75000 0
162500 -75000 0
150000 -62500 0
162500 -62500 0
162500 -75000 0
175000 -75000 0
162500 -62500 0
175000 -62500 0
150000 -62500 0
162500 -62500 0
150000 -50000 0
162500 -50000 0
162500 -62500 0
175000 -62500 0
162500 -50000 0
175000 -50000 0
175000 -75000 0
187500 -75000 0
175000 -62500 0
187500 -62500 0
187500 -75000 0
200000 -75000 0
187500 -62500 0
200000 -62500 0
175000 -62500 0
187500 -62500 0
175000 -50000 0
187500 -50000 0
187500 -62500 0
200000 -62500 0
187500 -50000 0
200000 -50000 0
150000 -50000 0
162500 -50000 0
150000 -37500 0
162500 -37500 0
162500 -50000 0
175000 -50000 0
162500 -37500 0
175000 -37500 0
150000 -37500 0
162500 -37500 0
150000 -25000 0
162500 -25000 0
162500 -37500 0
175000 -37500 0
162500 -25000 0
175000 -25000 0
175000 -50000 0
187500 -50000 0
175000 -37500 0
187500 -37500 0
187500 -50000 0
200000 -50000 0
187500 -37500 0
200000 -37500 0
175000 -37500 0
187500 -37500 0
175000 -25000 0
187500 -25000 0
187500 -37500 0
200000 -37500 0
187500 -25000 0
200000 -25000 0
175000 -25000 0
187500 -25000 0
175000 -12500 0
187500 -12500 0
187500 -25000 0
200000 -25000 0
187500 -12500 0
200000 -12500 0
175000 -12500 0
187500 -12500 0
175000 0 0
187500 0 0
187500 -12500 0
200000 -12500 0
187500 0 0
200000 0 0
87500 -75000 0
93750 -75000 0
87500 -68750 0
93750 -68750 0
43750 -43750 0
50000 -43750 0
43750 -37500 0
50000 -37500 0
75000 -56250 0
81250 -56250 0
75000 -50000 0
81250 -50000 0
81250 -56250 0
87500 -56250 0
81250 -50000 0
87500 -50000 0
87500 -62500 0
93750 -62500 0
87500 -56250 0
93750 -56250 0
93750 -62500 0
100000 -62500 0
93750 -56250 0
100000 -56250 0
87500 -56250 0
93750 -56250 0
87500 -50000 0
93750 -50000 0
93750 -56250 0
100000 -56250 0
93750 -50000 0
100000 -50000 0
56250 -50000 0
62500 -50000 0
56250 -43750 0
62500 -43750 0
50000 -43750 0
56250 -43750 0
50000 -37500 0
56250 -37500 0
62500 -50000 0
68750 -50000 0
62500 -43750 0
68750 -43750 0
68750 -50000 0
75000 -50000 0
68750 -43750 0
75000 -43750 0
75000 -50000 0
81250 -50000 0
75000 -43750 0
81250 -43750 0
81250 -50000 0
87500 -50000 0
81250 -43750 0
87500 -43750 0
75000 -43750 0
81250 -43750 0
75000 -37500 0
81250 -37500 0
118750 -100000 0
125000 -100000 0
118750 -93750 0
125000 -93750 0
118750 -87500 0
125000 -87500 0
118750 -81250 0
125000 -81250 0
100000 -68750 0
106250 -68750 0
100000 -62500 0
106250 -62500 0
106250 -68750 0
112500 -68750 0
106250 -62500 0
112500 -62500 0
118750 -25000 0
125000 -25000 0
118750 -18750 0
125000 -18750 0
118750 -18750 0
125000 -18750 0
118750 -12500 0
125000 -12500 0
118750 -6250 0
125000 -6250 0
118750 0 0
125000 0 0
106250 -37500 0
112500 -37500 0
106250 -31250 0
112500 -31250 0
112500 -37500 0
118750 -37500 0
112500 -31250 0
118750 -31250 0
118750 -37500 0
125000 -37500 0
118750 -31250 0
125000 -31250 0
112500 -31250 0
118750 -31250 0
112500 -25000 0
118750 -25000 0
118750 -31250 0
125000 -31250 0
118750 -25000 0
125000 -25000 0
87500 -50000 0
93750 -50000 0
87500 -43750 0
93750 -43750 0
93750 -50000 0
100000 -50000 0
93750 -43750 0
100000 -43750 0
87500 -43750 0
93750 -43750 0
87500 -37500 0
93750 -37500 0
93750 -43750 0
100000 -43750 0
93750 -37500 0
100000 -37500 0
87500 -37500 0
93750 -37500 0
87500 -31250 0
93750 -31250 0
93750 -37500 0
100000 -37500 0
93750 -31250 0
100000 -31250 0
87500 -31250 0
93750 -31250 0
87500 -25000 0
93750 -25000 0
93750 -31250 0
100000 -31250 0
93750 -25000 0
100000 -25000 0
100000 -87500 0
106250 -87500 0
100000 -81250 0
106250 -81250 0
106250 -87500 0
112500 -87500 0
106250 -81250 0
112500 -81250 0
100000 -81250 0
106250 -81250 0
100000 -75000 0
106250 -75000 0
106250 -81250 0
112500 -81250 0
106250 -75000 0
112500 -75000 0
125000 -100000 0
131250 -100000 0
125000 -93750 0
131250 -93750 0
131250 -100000 0
137500 -100000 0
131250 -93750 0
137500 -93750 0
125000 -93750 0
131250 -93750 0
125000 -87500 0
131250 -87500 0
131250 -93750 0
137500 -93750 0
131250 -87500 0
137500 -87500 0
137500 -100000 0
143750 -100000 0
137500 -93750 0
143750 -93750 0
143750 -100000 0
150000 -100000 0
143750 -93750 0
150000 -93750 0
137500 -93750 0
143750 -93750 0
137500 -87500 0
143750 -87500 0
143750 -93750 0
150000 -93750 0
143750 -87500 0
150000 -87500 0
125000 -87500 0
131250 -87500 0
125000 -81250 0
131250 -81250 0
131250 -87500 0
137500 -87500 0
131250 -81250 0
137500 -81250 0
125000 -81250 0
131250 -81250 0
125000 -75000 0
131250 -75000 0
131250 -81250 0
137500 -81250 0
131250 -75000 0
137500 -75000 0
137500 -87500 0
143750 -87500 0
137500 -81250 0
143750 -81250 0
143750 -87500 0
150000 -87500 0
143750 -81250 0
150000 -81250 0
137500 -81250 0
143750 -81250 0
137500 -75000 0
143750 -75000 0
143750 -81250 0
150000 -81250 0
143750 -75000 0
150000 -75000 0
112500 -75000 0
118750 -75000 0
112500 -68750 0
118750 -68750 0
118750 -75000 0
125000 -75000 0
118750 -68750 0
125000 -68750 0
112500 -68750 0
118750 -68750 0
112500 -62500 0
118750 -62500 0
118750 -68750 0
125000 -68750 0
118750 -62500 0
125000 -62500 0
100000 -62500 0
106250 -62500 0
100000 -56250 0
106250 -56250 0
106250 -62500 0
112500 -62500 0
106250 -56250 0
112500 -56250 0
100000 -56250 0
106250 -56250 0
100000 -50000 0
106250 -50000 0
106250 -56250 0
112500 -56250 0
106250 -50000 0
112500 -50000 0
112500 -62500 0
118750 -62500 0
112500 -56250 0
118750 -56250 0
118750 -62500 0
125000 -62500 0
118750 -56250 0
125000 -56250 0
112500 -56250 0
118750 -56250 0
112500 -50000 0
118750 -50000 0
118750 -56250 0
125000 -56250 0
118750 -50000 0
125000 -50000 0
100000 -25000 0
106250 -25000 0
100000 -18750 0
106250 -18750 0
106250 -25000 0
112500 -25000 0
106250 -18750 0
112500 -18750 0
100000 -18750 0
106250 -18750 0
100000 -12500 0
106250 -12500 0
106250 -18750 0
112500 -18750 0
106250 -12500 0
112500 -12500 0
100000 -12500 0
106250 -12500 0
100000 -6250 0
106250 -6250 0
106250 -12500 0
112500 -12500 0
106250 -6250 0
112500 -6250 0
100000 -6250 0
106250 -6250 0
100000 0 0
106250 0 0
106250 -6250 0
112500 -6250 0
106250 0 0
112500 0 0
150000 -100000 0
156250 -100000 0
150000 -93750 0
156250 -93750 0
156250 -100000 0
162500 -100000 0
156250 -93750 0
162500 -93750 0
150000 -93750 0
156250 -93750 0
150000 -87500 0
156250 -87500 0
156250 -93750 0
162500 -93750 0
156250 -87500 0
162500 -87500 0
150000 -87500 0
156250 -87500 0
150000 -81250 0
156250 -81250 0
156250 -87500 0
162500 -87500 0
156250 -81250 0
162500 -81250 0
150000 -81250 0
156250 -81250 0
150000 -75000 0
156250 -75000 0
156250 -81250 0
162500 -81250 0
156250 -75000 0
162500 -75000 0
100000 -50000 0
106250 -50000 0
100000 -43750 0
106250 -43750 0
106250 -50000 0
112500 -50000 0
106250 -43750 0
112500 -43750 0
100000 -43750 0
106250 -43750 0
100000 -37500 0
106250 -37500 0
106250 -43750 0
112500 -43750 0
106250 -37500 0
112500 -37500 0
137500 -25000 0
143750 -25000 0
137500 -18750 0
143750 -18750 0
143750 -25000 0
150000 -25000 0
143750 -18750 0
150000 -18750 0
137500 -18750 0
143750 -18750 0
137500 -12500 0
143750 -12500 0
143750 -18750 0
150000 -18750 0
143750 -12500 0
150000 -12500 0
125000 -12500 0
131250 -12500 0
125000 -6250 0
131250 -6250 0
131250 -12500 0
137500 -12500 0
131250 -6250 0
137500 -6250 0
125000 -6250 0
131250 -6250 0
125000 0 0
131250 0 0
131250 -6250 0
137500 -6250 0
131250 0 0
137500 0 0
137500 -12500 0
143750 -12500 0
137500 -6250 0
143750 -6250 0
143750 -12500 0
150000 -12500 0
143750 -6250 0
150000 -6250 0
137500 -6250 0
143750 -6250 0
137500 0 0
143750 0 0
143750 -6250 0
150000 -6250 0
143750 0 0
150000 0 0
125000 -37500 0
131250 -37500 0
125000 -31250 0
131250 -31250 0
131250 -37500 0
137500 -37500 0
131250 -31250 0
137500 -31250 0
125000 -31250 0
131250 -31250 0
125000 -25000 0
131250 -25000 0
131250 -31250 0
137500 -31250 0
131250 -25000 0
137500 -25000 0
137500 -37500 0
143750 -37500 0
137500 -31250 0
143750 -31250 0
143750 -37500 0
150000 -37500 0
143750 -31250 0
150000 -31250 0
137500 -31250 0
143750 -31250 0
137500 -25000 0
143750 -25000 0
143750 -31250 0
150000 -31250 0
143750 -25000 0
150000 -25000 0
150000 -25000 0
156250 -25000 0
150000 -18750 0
156250 -18750 0
156250 -25000 0
162500 -25000 0
156250 -18750 0
162500 -18750 0
150000 -18750 0
156250 -18750 0
150000 -12500 0
156250 -12500 0
156250 -18750 0
162500 -18750 0
156250 -12500 0
162500 -12500 0
162500 -25000 0
168750 -25000 0
162500 -18750 0
168750 -18750 0
168750 -25000 0
175000 -25000 0
168750 -18750 0
175000 -18750 0
162500 -18750 0
168750 -18750 0
162500 -12500 0
168750 -12500 0
168750 -18750 0
175000 -18750 0
168750 -12500 0
175000 -12500 0
150000 -12500 0
156250 -12500 0
150000 -6250 0
156250 -6250 0
156250 -12500 0
162500 -12500 0
156250 -6250 0
162500 -6250 0
150000 -6250 0
156250 -6250 0
150000 0 0
156250 0 0
156250 -6250 0
162500 -6250 0
156250 0 0
162500 0 0
0 -100000 0
3125 -100000 0
0 -96875 0
3125 -96875 0
3125 -100000 0
6250 -100000 0
3125 -96875 0
6250 -96875 0
0 -96875 0
3125 -96875 0
0 -93750 0
3125 -93750 0
3125 -96875 0
6250 -96875 0
3125 -93750 0
[...]
POINT_DATA 18272
SCALARS history_field_xz double 1
LOOKUP_TABLE default
4.90201e+08 4.90201e+08 4.9046e+08 4.9046e+08 4.9046e+08 4.9046e+08 4.91335e+08 4.91335e+08 4.93688e+08 4.93688e+08 5.01445e+08 5.01445e+08 5.03528e+08 5.03528e+08 5.0656e+08 5.0656e+08 4.9379e+08 4.9379e+08 4.98964e+08 4.98964e+08 4.93814e+08 4.93814e+08 4.97227e+08 4.97227e+08 4.97222e+08 4.97222e+08 4.97583e+08 4.97583e+08 4.84205e+08 4.84205e+08 4.88539e+08 4.88539e+08 4.8754e+08 4.8754e+08 4.90405e+08 4.90405e+08 4.88539e+08 4.88539e+08 4.9379e+08 4.9379e+08 4.90405e+08 4.90405e+08 4.93814e+08 4.93814e+08 4.91882e+08 4.91882e+08 4.92043e+08 4.92043e+08 4.9325e+08 4.9325e+08 4.93299e+08 4.93299e+08 4.92043e+08 4.92043e+08 4.92481e+08 4.92481e+08 4.93299e+08 4.93299e+08 4.93438e+08 4.93438e+08 4.89856e+08 4.89856e+08 4.91647e+08 4.91647e+08 4.91335e+08 4.91335e+08 4.92506e+08 4.92506e+08 4.91647e+08 4.91647e+08 4.93851e+08 4.93851e+08 4.92506e+08 4.92506e+08 4.93871e+08 4.93871e+08 4.92481e+08 4.92481e+08 4.93129e+08 4.93129e+08 4.93438e+08 4.93438e+08 4.93641e+08 4.93641e+08 4.93129e+08 4.93129e+08 4.93877e+08 4.93877e+08 4.93641e+08 4.93641e+08 4.93879e+08 4.93879e+08 4.93851e+08 4.93851e+08 4.96087e+08 4.96087e+08 4.93871e+08 4.93871e+08 4.9525e+08 4.9525e+08 4.96087e+08 4.96087e+08 4.98057e+08 4.98057e+08 4.9525e+08 4.9525e+08 4.9635e+08 4.9635e+08 4.93877e+08 4.93877e+08 4.9462e+08 4.9462e+08 4.93879e+08 4.93879e+08 4.94119e+08 4.94119e+08 4.9462e+08 4.9462e+08 4.9529e+08 4.9529e+08 4.94119e+08 4.94119e+08 4.94325e+08 4.94325e+08 4.9529e+08 4.9529e+08 4.95732e+08 4.95732e+08 4.94325e+08 4.94325e+08 4.94464e+08 4.94464e+08 4.95732e+08 4.95732e+08 4.95866e+08 4.95866e+08 4.94464e+08 4.94464e+08 4.94513e+08 4.94513e+08 4.59287e+08 4.59287e+08 4.66105e+08 4.66105e+08 5.07628e+08 5.07628e+08 5.49851e+08 5.49851e+08 4.76378e+08 4.76378e+08 4.90408e+08 4.90408e+08 4.80299e+08 4.80299e+08 4.91535e+08 4.91535e+08 4.73884e+08 4.73884e+08 4.82915e+08 4.82915e+08 4.77883e+08 4.77883e+08 4.85067e+08 4.85067e+08 4.82915e+08 4.82915e+08 4.92317e+08 4.92317e+08 4.85067e+08 4.85067e+08 4.92819e+08 4.92819e+08 4.82302e+08 4.82302e+08 5.08867e+08 5.08867e+08 5.09186e+08 5.09186e+08 5.42294e+08 5.42294e+08 4.86208e+08 4.86208e+08 5.07657e+08 5.07657e+08 4.88849e+08 4.88849e+08 5.06148e+08 5.06148e+08 4.90408e+08 4.90408e+08 5.04797e+08 5.04797e+08 4.91535e+08 4.91535e+08 5.03288e+08 5.03288e+08 5.04797e+08 5.04797e+08 5.19131e+08 5.19131e+08 4.75834e+08 4.75834e+08 4.76351e+08 4.76351e+08 4.77383e+08 4.77383e+08 4.79074e+08 4.79074e+08 4.75173e+08 4.75173e+08 4.80762e+08 4.80762e+08 4.78758e+08 4.78758e+08 4.8316e+08 4.8316e+08 5.06405e+08 5.06405e+08 5.10214e+08 5.10214e+08 5.10214e+08 5.10214e+08 5.10477e+08 5.10477e+08 5.11572e+08 5.11572e+08 5.12244e+08 5.12244e+08 5.03862e+08 5.03862e+08 5.0859e+08 5.0859e+08 5.01445e+08 5.01445e+08 5.06068e+08 5.06068e+08 5.01445e+08 5.01445e+08 5.03712e+08 5.03712e+08 5.06068e+08 5.06068e+08 5.0969e+08 5.0969e+08 5.03712e+08 5.03712e+08 5.06405e+08 5.06405e+08 4.92317e+08 4.92317e+08 5.01876e+08 5.01876e+08 4.92819e+08 4.92819e+08 5.00741e+08 5.00741e+08 5.01876e+08 5.01876e+08 5.1149e+08 5.1149e+08 5.00741e+08 5.00741e+08 5.08555e+08 5.08555e+08 5.1149e+08 5.1149e+08 5.20514e+08 5.20514e+08 5.08555e+08 5.08555e+08 5.15631e+08 5.15631e+08 5.20514e+08 5.20514e+08 5.286e+08 5.286e+08 5.15631e+08 5.15631e+08 5.21976e+08 5.21976e+08 4.63831e+08 4.63831e+08 4.66622e+08 4.66622e+08 4.69328e+08 4.69328e+08 4.71651e+08 4.71651e+08 4.66622e+08 4.66622e+08 4.70501e+08 4.70501e+08 4.71651e+08 4.71651e+08 4.74835e+08 4.74835e+08 4.79138e+08 4.79138e+08 4.79374e+08 4.79374e+08 4.81786e+08 4.81786e+08 4.82017e+08 4.82017e+08 4.79374e+08 4.79374e+08 4.80232e+08 4.80232e+08 4.82017e+08 4.82017e+08 4.82684e+08 4.82684e+08 4.84e+08 4.84e+08 4.84185e+08 4.84185e+08 4.85841e+08 4.85841e+08 4.85985e+08 4.85985e+08 4.84185e+08 4.84185e+08 4.84736e+08 4.84736e+08 4.85985e+08 4.85985e+08 4.86428e+08 4.86428e+08 4.80232e+08 4.80232e+08 4.81564e+08 4.81564e+08 4.82684e+08 4.82684e+08 4.83836e+08 4.83836e+08 4.81564e+08 4.81564e+08 4.84205e+08 4.84205e+08 4.83836e+08 4.83836e+08 4.84205e+08 4.84205e+08 4.84736e+08 4.84736e+08 4.85525e+08 4.85525e+08 4.86428e+08 4.86428e+08 4.87233e+08 4.87233e+08 4.85525e+08 4.85525e+08 4.8754e+08 4.8754e+08 4.87233e+08 4.87233e+08 4.8754e+08 4.8754e+08 4.77951e+08 4.77951e+08 4.81329e+08 4.81329e+08 4.81325e+08 4.81325e+08 4.83025e+08 4.83025e+08 4.81329e+08 4.81329e+08 4.85085e+08 4.85085e+08 4.83025e+08 4.83025e+08 4.8708e+08 4.8708e+08 4.80762e+08 4.80762e+08 4.86779e+08 4.86779e+08 4.8316e+08 4.8316e+08 4.88141e+08 4.88141e+08 4.86779e+08 4.86779e+08 4.93181e+08 4.93181e+08 4.88141e+08 4.88141e+08 4.93223e+08 4.93223e+08 4.85085e+08 4.85085e+08 4.8925e+08 4.8925e+08 4.8708e+08 4.8708e+08 4.89937e+08 4.89937e+08 4.8925e+08 4.8925e+08 4.93688e+08 4.93688e+08 4.89937e+08 4.89937e+08 4.93688e+08 4.93688e+08 5.17292e+08 5.17292e+08 5.21739e+08 5.21739e+08 5.12893e+08 5.12893e+08 5.16584e+08 5.16584e+08 5.21739e+08 5.21739e+08 5.24936e+08 5.24936e+08 5.16584e+08 5.16584e+08 5.19281e+08 5.19281e+08 5.24936e+08 5.24936e+08 5.26955e+08 5.26955e+08 5.19281e+08 5.19281e+08 5.2089e+08 5.2089e+08 5.26955e+08 5.26955e+08 5.27637e+08 5.27637e+08 5.2089e+08 5.2089e+08 5.21451e+08 5.21451e+08 4.87342e+08 4.87342e+08 4.87522e+08 4.87522e+08 4.88951e+08 4.88951e+08 4.88467e+08 4.88467e+08 4.87522e+08 4.87522e+08 4.87825e+08 4.87825e+08 4.88467e+08 4.88467e+08 4.8934e+08 4.8934e+08 4.87825e+08 4.87825e+08 4.88411e+08 4.88411e+08 4.8934e+08 4.8934e+08 4.89212e+08 4.89212e+08 4.88411e+08 4.88411e+08 4.89856e+08 4.89856e+08 4.89212e+08 4.89212e+08 4.89856e+08 4.89856e+08 4.93181e+08 4.93181e+08 4.99675e+08 4.99675e+08 4.93223e+08 4.93223e+08 4.99005e+08 4.99005e+08 4.99675e+08 4.99675e+08 5.06012e+08 5.06012e+08 4.99005e+08 4.99005e+08 5.03862e+08 5.03862e+08 5.01092e+08 5.01092e+08 5.01385e+08 5.01385e+08 4.99435e+08 4.99435e+08 5.00446e+08 5.00446e+08 5.01385e+08 5.01385e+08 5.03175e+08 5.03175e+08 5.00446e+08 5.00446e+08 5.01281e+08 5.01281e+08 5.0656e+08 5.0656e+08 5.08621e+08 5.08621e+08 5.0656e+08 5.0656e+08 5.05985e+08 5.05985e+08 5.08621e+08 5.08621e+08 5.08854e+08 5.08854e+08 5.05985e+08 5.05985e+08 5.06231e+08 5.06231e+08 5.03175e+08 5.03175e+08 5.03899e+08 5.03899e+08 5.01281e+08 5.01281e+08 5.01893e+08 5.01893e+08 5.03899e+08 5.03899e+08 5.03984e+08 5.03984e+08 5.01893e+08 5.01893e+08 5.02086e+08 5.02086e+08 4.98964e+08 4.98964e+08 5.02147e+08 5.02147e+08 4.98964e+08 4.98964e+08 5.00632e+08 5.00632e+08 5.02147e+08 5.02147e+08 5.03528e+08 5.03528e+08 5.00632e+08 5.00632e+08 5.03528e+08 5.03528e+08 4.97227e+08 4.97227e+08 4.99607e+08 4.99607e+08 4.97227e+08 4.97227e+08 4.9875e+08 4.9875e+08 4.99607e+08 4.99607e+08 5.01092e+08 5.01092e+08 4.9875e+08 4.9875e+08 4.99435e+08 4.99435e+08 4.98057e+08 4.98057e+08 4.99236e+08 4.99236e+08 4.98057e+08 4.98057e+08 4.98097e+08 4.98097e+08 4.99236e+08 4.99236e+08 4.99904e+08 4.99904e+08 4.98097e+08 4.98097e+08 4.98608e+08 4.98608e+08 4.9635e+08 4.9635e+08 4.97346e+08 4.97346e+08 4.9635e+08 4.9635e+08 4.96866e+08 4.96866e+08 4.97346e+08 4.97346e+08 4.97222e+08 4.97222e+08 4.96866e+08 4.96866e+08 4.97222e+08 4.97222e+08 4.99904e+08 4.99904e+08 5.00308e+08 5.00308e+08 4.98608e+08 4.98608e+08 4.99367e+08 4.99367e+08 5.00308e+08 5.00308e+08 5.00505e+08 5.00505e+08 4.99367e+08 4.99367e+08 4.98818e+08 4.98818e+08 1.31492e+07 1.31492e+07 1.31914e+07 1.31914e+07 3.93644e+07 3.93644e+07 3.94893e+07 3.94893e+07 1.31914e+07 1.31914e+07 1.3319e+07 1.3319e+07 3.94893e+07 3.94893e+07 3.98691e+07 3.98691e+07 6.53328e+07 6.53328e+07 6.55358e+07 6.55358e+07 9.09004e+07 9.09004e+07 9.11738e+07 9.11738e+07 6.55358e+07 6.55358e+07 6.61525e+07 6.61525e+07 9.11738e+07 9.11738e+07 9.20043e+07 9.20043e+07 1.3319e+07 1.3319e+07 1.35385e+07 1.35385e+07 3.98691e+07 3.98691e+07 4.05129e+07 4.05129e+07 1.35385e+07 1.35385e+07 1.37916e+07 1.37916e+07 4.05129e+07 4.05129e+07 4.14643e+07 4.14643e+07 6.61525e+07 6.61525e+07 6.72136e+07 6.72136e+07 9.20043e+07 9.20043e+07 9.34215e+07 9.34215e+07 6.72136e+07 6.72136e+07 6.87544e+07 6.87544e+07 9.34215e+07 9.34215e+07 9.55295e+07 9.55295e+07 1.15927e+08 1.15927e+08 1.16262e+08 1.16262e+08 1.40291e+08 1.40291e+08 1.40677e+08 1.40677e+08 1.16262e+08 1.16262e+08 1.17276e+08 1.17276e+08 1.40677e+08 1.40677e+08 1.41845e+08 1.41845e+08 1.63897e+08 1.63897e+08 1.64315e+08 1.64315e+08 1.86664e+08 1.86664e+08 1.8712e+08 1.8712e+08 1.64315e+08 1.64315e+08 1.65603e+08 1.65603e+08 1.8712e+08 1.8712e+08 1.8842e+08 1.8842e+08 1.17276e+08 1.17276e+08 1.19e+08 1.19e+08 1.41845e+08 1.41845e+08 1.43824e+08 1.43824e+08 1.19e+08 1.19e+08 1.21442e+08 1.21442e+08 1.43824e+08 1.43824e+08 1.46655e+08 1.46655e+08 1.65603e+08 1.65603e+08 1.67802e+08 1.67802e+08 1.8842e+08 1.8842e+08 1.90824e+08 1.90824e+08 1.67802e+08 1.67802e+08 1.70967e+08 1.70967e+08 1.90824e+08 1.90824e+08 1.94274e+08 1.94274e+08 1.37916e+07 1.37916e+07 1.40598e+07 1.40598e+07 4.14643e+07 4.14643e+07 4.2147e+07 4.2147e+07 6.87544e+07 6.87544e+07 7.16967e+07 7.16967e+07 9.55295e+07 9.55295e+07 9.80499e+07 9.80499e+07 9.80499e+07 9.80499e+07 1.01324e+08 1.01324e+08 1.21442e+08 1.21442e+08 1.24658e+08 1.24658e+08 1.46655e+08 1.46655e+08 1.50398e+08 1.50398e+08 1.24658e+08 1.24658e+08 1.28726e+08 1.28726e+08 1.50398e+08 1.50398e+08 1.55141e+08 1.55141e+08 1.70967e+08 1.70967e+08 1.75152e+08 1.75152e+08 1.94274e+08 1.94274e+08 1.98809e+08 1.98809e+08 1.75152e+08 1.75152e+08 1.80445e+08 1.80445e+08 1.98809e+08 1.98809e+08 2.04525e+08 2.04525e+08 1.28726e+08 1.28726e+08 1.33756e+08 1.33756e+08 1.55141e+08 1.55141e+08 1.61018e+08 1.61018e+08 1.61018e+08 1.61018e+08 1.68191e+08 1.68191e+08 1.80445e+08 1.80445e+08 1.86975e+08 1.86975e+08 2.04525e+08 2.04525e+08 2.11545e+08 2.11545e+08 1.86975e+08 1.86975e+08 1.94909e+08 1.94909e+08 2.11545e+08 2.11545e+08 2.20025e+08 2.20025e+08 2.09206e+08 2.09206e+08 2.08669e+08 2.08669e+08 2.08669e+08 2.08669e+08 2.10185e+08 2.10185e+08 2.28691e+08 2.28691e+08 2.31094e+08 2.31094e+08 2.49763e+08 2.49763e+08 2.51063e+08 2.51063e+08 2.10185e+08 2.10185e+08 2.12841e+08 2.12841e+08 2.31094e+08 2.31094e+08 2.3382e+08 2.3382e+08 2.12841e+08 2.12841e+08 2.16503e+08 2.16503e+08 2.3382e+08 2.3382e+08 2.37607e+08 2.37607e+08 2.51063e+08 2.51063e+08 2.53718e+08 2.53718e+08 2.53718e+08 2.53718e+08 2.57548e+08 2.57548e+08 4.53552e+08 4.53552e+08 4.70902e+08 4.70902e+08 3.98447e+08 3.98447e+08 3.98834e+08 3.98834e+08 4.07025e+08 4.07025e+08 4.0725e+08 4.0725e+08 4.14807e+08 4.14807e+08 4.15389e+08 4.15389e+08 2.16503e+08 2.16503e+08 2.21294e+08 2.21294e+08 2.37607e+08 2.37607e+08 2.42559e+08 2.42559e+08 2.21294e+08 2.21294e+08 2.2731e+08 2.2731e+08 2.42559e+08 2.42559e+08 2.48763e+08 2.48763e+08 2.57548e+08 2.57548e+08 2.62576e+08 2.62576e+08 2.62576e+08 2.62576e+08 2.68868e+08 2.68868e+08 2.2731e+08 2.2731e+08 2.34667e+08 2.34667e+08 2.48763e+08 2.48763e+08 2.56321e+08 2.56321e+08 2.34667e+08 2.34667e+08 2.43502e+08 2.43502e+08 2.56321e+08 2.56321e+08 2.65347e+08 2.65347e+08 2.68868e+08 2.68868e+08 2.76508e+08 2.76508e+08 2.76508e+08 2.76508e+08 2.85604e+08 2.85604e+08 4.1918e+08 4.1918e+08 4.23543e+08 4.23543e+08 1.94909e+08 1.94909e+08 2.04489e+08 2.04489e+08 2.20025e+08 2.20025e+08 2.30229e+08 2.30229e+08 2.30229e+08 2.30229e+08 2.41283e+08 2.41283e+08 2.41283e+08 2.41283e+08 2.55873e+08 2.55873e+08 2.55873e+08 2.55873e+08 2.73724e+08 2.73724e+08 2.43502e+08 2.43502e+08 2.53881e+08 2.53881e+08 2.65347e+08 2.65347e+08 2.76e+08 2.76e+08 2.53881e+08 2.53881e+08 2.66181e+08 2.66181e+08 2.76e+08 2.76e+08 2.88483e+08 2.88483e+08 2.85604e+08 2.85604e+08 2.96291e+08 2.96291e+08 2.96291e+08 2.96291e+08 3.08715e+08 3.08715e+08 2.66181e+08 2.66181e+08 2.8075e+08 2.8075e+08 2.88483e+08 2.88483e+08 3.02948e+08 3.02948e+08 2.8075e+08 2.8075e+08 2.97944e+08 2.97944e+08 3.02948e+08 3.02948e+08 3.19563e+08 3.19563e+08 3.08715e+08 3.08715e+08 3.23096e+08 3.23096e+08 3.23096e+08 3.23096e+08 3.38851e+08 3.38851e+08 2.84903e+08 2.84903e+08 2.85595e+08 2.85595e+08 3.01591e+08 3.01591e+08 3.02142e+08 3.02142e+08 2.85595e+08 2.85595e+08 2.87348e+08 2.87348e+08 3.02142e+08 3.02142e+08 3.03779e+08 3.03779e+08 4.29974e+08 4.29974e+08 4.39378e+08 4.39378e+08 4.37628e+08 4.37628e+08 4.50495e+08 4.50495e+08 2.97944e+08 2.97944e+08 3.16773e+08 3.16773e+08 3.19563e+08 3.19563e+08 3.3945e+08 3.3945e+08 3.16773e+08 3.16773e+08 3.39942e+08 3.39942e+08 3.3945e+08 3.3945e+08 3.61279e+08 3.61279e+08 3.39942e+08 3.39942e+08 3.6582e+08 3.6582e+08 3.61279e+08 3.61279e+08 3.86095e+08 3.86095e+08 3.6582e+08 3.6582e+08 3.96818e+08 3.96818e+08 4.32768e+08 4.32768e+08 4.43806e+08 4.43806e+08 4.39378e+08 4.39378e+08 4.49419e+08 4.49419e+08 4.43806e+08 4.43806e+08 4.55702e+08 4.55702e+08 4.49419e+08 4.49419e+08 4.60212e+08 4.60212e+08 4.44233e+08 4.44233e+08 4.59167e+08 4.59167e+08 4.50495e+08 4.50495e+08 4.64196e+08 4.64196e+08 4.59167e+08 4.59167e+08 4.75008e+08 4.75008e+08 4.64196e+08 4.64196e+08 4.78489e+08 4.78489e+08 5.1371e+08 5.1371e+08 5.62081e+08 5.62081e+08 5.22124e+08 5.22124e+08 5.63487e+08 5.63487e+08 4.75747e+08 4.75747e+08 5.02241e+08 5.02241e+08 4.81999e+08 4.81999e+08 5.04925e+08 5.04925e+08 5.58343e+08 5.58343e+08 5.87555e+08 5.87555e+08 5.55289e+08 5.55289e+08 5.80102e+08 5.80102e+08 5.49851e+08 5.49851e+08 5.7395e+08 5.7395e+08 5.49851e+08 5.49851e+08 5.67662e+08 5.67662e+08 5.42294e+08 5.42294e+08 5.62318e+08 5.62318e+08 5.42294e+08 5.42294e+08 5.56341e+08 5.56341e+08 5.37291e+08 5.37291e+08 5.51724e+08 5.51724e+08 5.33979e+08 5.33979e+08 5.46693e+08 5.46693e+08 5.51724e+08 5.51724e+08 5.65323e+08 5.65323e+08 5.46693e+08 5.46693e+08 5.58908e+08 5.58908e+08 5.58908e+08 5.58908e+08 5.70636e+08 5.70636e+08 5.62428e+08 5.62428e+08 5.64049e+08 5.64049e+08 3.74938e+08 3.74938e+08 4.11282e+08 4.11282e+08 4.11282e+08 4.11282e+08 4.53881e+08 4.53881e+08 5.57585e+08 5.57585e+08 6.16914e+08 6.16914e+08 5.47655e+08 5.47655e+08 5.49807e+08 5.49807e+08 5.554e+08 5.554e+08 5.57479e+08 5.57479e+08 5.49807e+08 5.49807e+08 5.51273e+08 5.51273e+08 5.62081e+08 5.62081e+08 6.13037e+08 6.13037e+08 5.63487e+08 5.63487e+08 6.06963e+08 6.06963e+08 5.73388e+08 5.73388e+08 5.73753e+08 5.73753e+08 5.65063e+08 5.65063e+08 5.65808e+08 5.65808e+08 6.65299e+08 6.65299e+08 7.17136e+08 7.17136e+08 6.76446e+08 6.76446e+08 7.11059e+08 7.11059e+08 6.5859e+08 6.5859e+08 6.89633e+08 6.89633e+08 5.57479e+08 5.57479e+08 5.5853e+08 5.5853e+08 5.51273e+08 5.51273e+08 5.52225e+08 5.52225e+08 5.5853e+08 5.5853e+08 5.58748e+08 5.58748e+08 5.52225e+08 5.52225e+08 5.52539e+08 5.52539e+08 6.89633e+08 6.89633e+08 7.17554e+08 7.17554e+08 6.70494e+08 6.70494e+08 6.94758e+08 6.94758e+08 6.94758e+08 6.94758e+08 7.1761e+08 7.1761e+08 6.7483e+08 6.7483e+08 6.94016e+08 6.94016e+08 7.1761e+08 7.1761e+08 7.34842e+08 7.34842e+08 6.94016e+08 6.94016e+08 7.10503e+08 7.10503e+08 7.10503e+08 7.10503e+08 7.25214e+08 7.25214e+08 6.73962e+08 6.73962e+08 6.88584e+08 6.88584e+08 6.88584e+08 6.88584e+08 7.00766e+08 7.00766e+08 6.69179e+08 6.69179e+08 6.79232e+08 6.79232e+08 7.25214e+08 7.25214e+08 7.34479e+08 7.34479e+08 7.00766e+08 7.00766e+08 7.10304e+08 7.10304e+08 6.79232e+08 6.79232e+08 6.88637e+08 6.88637e+08 7.10304e+08 7.10304e+08 7.18172e+08 7.18172e+08 6.88637e+08 6.88637e+08 6.94898e+08 6.94898e+08 7.18172e+08 7.18172e+08 7.21783e+08 7.21783e+08 6.94898e+08 6.94898e+08 6.98723e+08 6.98723e+08 7.21783e+08 7.21783e+08 7.23113e+08 7.23113e+08 6.98723e+08 6.98723e+08 6.98956e+08 6.98956e+08 3.17102e+08 3.17102e+08 3.17626e+08 3.17626e+08 3.31559e+08 3.31559e+08 3.32063e+08 3.32063e+08 3.17626e+08 3.17626e+08 3.19197e+08 3.19197e+08 3.32063e+08 3.32063e+08 3.33575e+08 3.33575e+08 2.87348e+08 2.87348e+08 2.90038e+08 2.90038e+08 3.03779e+08 3.03779e+08 3.06471e+08 3.06471e+08 2.90038e+08 2.90038e+08 2.93856e+08 2.93856e+08 3.06471e+08 3.06471e+08 3.10242e+08 3.10242e+08 3.19197e+08 3.19197e+08 3.21815e+08 3.21815e+08 3.33575e+08 3.33575e+08 3.36103e+08 3.36103e+08 3.21815e+08 3.21815e+08 3.25495e+08 3.25495e+08 3.36103e+08 3.36103e+08 3.39658e+08 3.39658e+08 2.93856e+08 2.93856e+08 2.98851e+08 2.98851e+08 3.10242e+08 3.10242e+08 3.15147e+08 3.15147e+08 2.98851e+08 2.98851e+08 3.05069e+08 3.05069e+08 3.15147e+08 3.15147e+08 3.21232e+08 3.21232e+08 3.25495e+08 3.25495e+08 3.30267e+08 3.30267e+08 3.39658e+08 3.39658e+08 3.44259e+08 3.44259e+08 3.30267e+08 3.30267e+08 3.36167e+08 3.36167e+08 3.44259e+08 3.44259e+08 3.49932e+08 3.49932e+08 6.69236e+08 6.69236e+08 6.74096e+08 6.74096e+08 3.05069e+08 3.05069e+08 3.12572e+08 3.12572e+08 3.21232e+08 3.21232e+08 3.28547e+08 3.28547e+08 3.12572e+08 3.12572e+08 3.21432e+08 3.21432e+08 3.28547e+08 3.28547e+08 3.3715e+08 3.3715e+08 6.74096e+08 6.74096e+08 6.78232e+08 6.78232e+08 3.36167e+08 3.36167e+08 3.43236e+08 3.43236e+08 3.49932e+08 3.49932e+08 3.56712e+08 3.56712e+08 3.43236e+08 3.43236e+08 3.51519e+08 3.51519e+08 3.56712e+08 3.56712e+08 3.6463e+08 3.6463e+08 3.21432e+08 3.21432e+08 3.31736e+08 3.31736e+08 3.3715e+08 3.3715e+08 3.47105e+08 3.47105e+08 3.31736e+08 3.31736e+08 3.4358e+08 3.4358e+08 3.47105e+08 3.47105e+08 3.58478e+08 3.58478e+08 3.51519e+08 3.51519e+08 3.61056e+08 3.61056e+08 3.6463e+08 3.6463e+08 3.73712e+08 3.73712e+08 3.61056e+08 3.61056e+08 3.71888e+08 3.71888e+08 3.73712e+08 3.73712e+08 3.83969e+08 3.83969e+08 3.4358e+08 3.4358e+08 3.57077e+08 3.57077e+08 3.58478e+08 3.58478e+08 3.71325e+08 3.71325e+08 3.57077e+08 3.57077e+08 3.72185e+08 3.72185e+08 3.71325e+08 3.71325e+08 3.85693e+08 3.85693e+08 3.71888e+08 3.71888e+08 3.84059e+08 3.84059e+08 3.83969e+08 3.83969e+08 3.95396e+08 3.95396e+08 3.84059e+08 3.84059e+08 3.97639e+08 3.97639e+08 3.95396e+08 3.95396e+08 4.08088e+08 4.08088e+08 3.72185e+08 3.72185e+08 3.89061e+08 3.89061e+08 3.85693e+08 3.85693e+08 4.01614e+08 4.01614e+08 3.89061e+08 3.89061e+08 4.07961e+08 4.07961e+08 4.01614e+08 4.01614e+08 4.19191e+08 4.19191e+08 3.97639e+08 3.97639e+08 4.12583e+08 4.12583e+08 4.08088e+08 4.08088e+08 4.22354e+08 4.22354e+08 4.12583e+08 4.12583e+08 4.286e+08 4.286e+08 4.22354e+08 4.22354e+08 4.37482e+08 4.37482e+08 4.07961e+08 4.07961e+08 4.28588e+08 4.28588e+08 4.19191e+08 4.19191e+08 4.38773e+08 4.38773e+08 4.28588e+08 4.28588e+08 4.51334e+08 4.51334e+08 4.38773e+08 4.38773e+08 4.59542e+08 4.59542e+08 3.4501e+08 3.4501e+08 3.45492e+08 3.45492e+08 3.575e+08 3.575e+08 3.57957e+08 3.57957e+08 3.45492e+08 3.45492e+08 3.4694e+08 3.4694e+08 3.57957e+08 3.57957e+08 3.59329e+08 3.59329e+08 3.69095e+08 3.69095e+08 3.69499e+08 3.69499e+08 3.79709e+08 3.79709e+08 3.80322e+08 3.80322e+08 3.69499e+08 3.69499e+08 3.7079e+08 3.7079e+08 3.80322e+08 3.80322e+08 3.81287e+08 3.81287e+08 3.4694e+08 3.4694e+08 3.49365e+08 3.49365e+08 3.59329e+08 3.59329e+08 3.61641e+08 3.61641e+08 3.49365e+08 3.49365e+08 3.52776e+08 3.52776e+08 3.61641e+08 3.61641e+08 3.64897e+08 3.64897e+08 3.7079e+08 3.7079e+08 3.72952e+08 3.72952e+08 3.81287e+08 3.81287e+08 3.83332e+08 3.83332e+08 3.72952e+08 3.72952e+08 3.76075e+08 3.76075e+08 3.83332e+08 3.83332e+08 3.86266e+08 3.86266e+08 3.90806e+08 3.90806e+08 3.93053e+08 3.93053e+08 4.00453e+08 4.00453e+08 4.02084e+08 4.02084e+08 3.93053e+08 3.93053e+08 3.95429e+08 3.95429e+08 4.02084e+08 4.02084e+08 4.04764e+08 4.04764e+08 3.52776e+08 3.52776e+08 3.57183e+08 3.57183e+08 3.64897e+08 3.64897e+08 3.69102e+08 3.69102e+08 3.57183e+08 3.57183e+08 3.62595e+08 3.62595e+08 3.69102e+08 3.69102e+08 3.74242e+08 3.74242e+08 3.76075e+08 3.76075e+08 3.80081e+08 3.80081e+08 3.86266e+08 3.86266e+08 3.90333e+08 3.90333e+08 3.80081e+08 3.80081e+08 3.8497e+08 3.8497e+08 3.90333e+08 3.90333e+08 3.94766e+08 3.94766e+08 3.62595e+08 3.62595e+08 3.6904e+08 3.6904e+08 3.74242e+08 3.74242e+08 3.80288e+08 3.80288e+08 3.6904e+08 3.6904e+08 3.7658e+08 3.7658e+08 3.80288e+08 3.80288e+08 3.87342e+08 3.87342e+08 3.8497e+08 3.8497e+08 3.90677e+08 3.90677e+08 3.94766e+08 3.94766e+08 4.00273e+08 4.00273e+08 3.90677e+08 3.90677e+08 3.96858e+08 3.96858e+08 4.00273e+08 4.00273e+08 4.06676e+08 4.06676e+08 4.63917e+08 4.63917e+08 4.68174e+08 4.68174e+08 4.67315e+08 4.67315e+08 4.69921e+08 4.69921e+08 4.68174e+08 4.68174e