# vtk DataFile Version 3.0
#This file was generated by the deal.II library on 2016/5/13 at 16:44:24
ASCII
DATASET UNSTRUCTURED_GRID

POINTS 52508 double
187500 -87500 0
200000 -87500 0
187500 -75000 0
200000 -75000 0
187500 -62500 0
200000 -62500 0
187500 -50000 0
200000 -50000 0
175000 -50000 0
187500 -50000 0
175000 -37500 0
187500 -37500 0
187500 -50000 0
200000 -50000 0
187500 -37500 0
200000 -37500 0
131250 -81250 0
137500 -81250 0
131250 -75000 0
137500 -75000 0
137500 -81250 0
143750 -81250 0
137500 -75000 0
143750 -75000 0
168750 -12500 0
175000 -12500 0
168750 -6250 0
175000 -6250 0
137500 -68750 0
143750 -68750 0
137500 -62500 0
143750 -62500 0
131250 -56250 0
137500 -56250 0
131250 -50000 0
137500 -50000 0
137500 -62500 0
143750 -62500 0
137500 -56250 0
143750 -56250 0
175000 -100000 0
181250 -100000 0
175000 -93750 0
181250 -93750 0
181250 -93750 0
187500 -93750 0
181250 -87500 0
187500 -87500 0
193750 -100000 0
200000 -100000 0
193750 -93750 0
200000 -93750 0
187500 -93750 0
193750 -93750 0
187500 -87500 0
193750 -87500 0
193750 -93750 0
200000 -93750 0
193750 -87500 0
200000 -87500 0
181250 -87500 0
187500 -87500 0
181250 -81250 0
187500 -81250 0
175000 -81250 0
181250 -81250 0
175000 -75000 0
181250 -75000 0
181250 -81250 0
187500 -81250 0
181250 -75000 0
187500 -75000 0
162500 -25000 0
168750 -25000 0
162500 -18750 0
168750 -18750 0
168750 -25000 0
175000 -25000 0
168750 -18750 0
175000 -18750 0
162500 -18750 0
168750 -18750 0
162500 -12500 0
168750 -12500 0
168750 -18750 0
175000 -18750 0
168750 -12500 0
175000 -12500 0
175000 -75000 0
181250 -75000 0
175000 -68750 0
181250 -68750 0
181250 -75000 0
187500 -75000 0
181250 -68750 0
187500 -68750 0
175000 -68750 0
181250 -68750 0
175000 -62500 0
181250 -62500 0
181250 -68750 0
187500 -68750 0
181250 -62500 0
187500 -62500 0
156250 -37500 0
162500 -37500 0
156250 -31250 0
162500 -31250 0
162500 -37500 0
168750 -37500 0
162500 -31250 0
168750 -31250 0
168750 -37500 0
175000 -37500 0
168750 -31250 0
175000 -31250 0
162500 -31250 0
168750 -31250 0
162500 -25000 0
168750 -25000 0
175000 -37500 0
181250 -37500 0
175000 -31250 0
181250 -31250 0
181250 -37500 0
187500 -37500 0
181250 -31250 0
187500 -31250 0
175000 -31250 0
181250 -31250 0
175000 -25000 0
181250 -25000 0
181250 -31250 0
187500 -31250 0
181250 -25000 0
187500 -25000 0
187500 -25000 0
193750 -25000 0
187500 -18750 0
193750 -18750 0
150000 -62500 0
156250 -62500 0
150000 -56250 0
156250 -56250 0
156250 -62500 0
162500 -62500 0
156250 -56250 0
162500 -56250 0
150000 -56250 0
156250 -56250 0
150000 -50000 0
156250 -50000 0
156250 -56250 0
162500 -56250 0
156250 -50000 0
162500 -50000 0
162500 -62500 0
168750 -62500 0
162500 -56250 0
168750 -56250 0
168750 -62500 0
175000 -62500 0
168750 -56250 0
175000 -56250 0
162500 -56250 0
168750 -56250 0
162500 -50000 0
168750 -50000 0
168750 -56250 0
175000 -56250 0
168750 -50000 0
175000 -50000 0
187500 -75000 0
193750 -75000 0
187500 -68750 0
193750 -68750 0
193750 -75000 0
200000 -75000 0
193750 -68750 0
200000 -68750 0
187500 -68750 0
193750 -68750 0
187500 -62500 0
193750 -62500 0
193750 -68750 0
200000 -68750 0
193750 -62500 0
200000 -62500 0
175000 -62500 0
181250 -62500 0
175000 -56250 0
181250 -56250 0
181250 -62500 0
187500 -62500 0
181250 -56250 0
187500 -56250 0
175000 -56250 0
181250 -56250 0
175000 -50000 0
181250 -50000 0
181250 -56250 0
187500 -56250 0
181250 -50000 0
187500 -50000 0
150000 -50000 0
156250 -50000 0
150000 -43750 0
156250 -43750 0
156250 -50000 0
162500 -50000 0
156250 -43750 0
162500 -43750 0
150000 -43750 0
156250 -43750 0
150000 -37500 0
156250 -37500 0
156250 -43750 0
162500 -43750 0
156250 -37500 0
162500 -37500 0
162500 -50000 0
168750 -50000 0
162500 -43750 0
168750 -43750 0
168750 -50000 0
175000 -50000 0
168750 -43750 0
175000 -43750 0
162500 -43750 0
168750 -43750 0
162500 -37500 0
168750 -37500 0
168750 -43750 0
175000 -43750 0
168750 -37500 0
175000 -37500 0
187500 -37500 0
193750 -37500 0
187500 -31250 0
193750 -31250 0
193750 -37500 0
200000 -37500 0
193750 -31250 0
200000 -31250 0
187500 -31250 0
193750 -31250 0
187500 -25000 0
193750 -25000 0
193750 -31250 0
200000 -31250 0
193750 -25000 0
200000 -25000 0
0 -100000 0
3125 -100000 0
0 -96875 0
3125 -96875 0
0 -93750 0
3125 -93750 0
0 -90625 0
3125 -90625 0
12500 -100000 0
15625 -100000 0
12500 -96875 0
15625 -96875 0
15625 -100000 0
18750 -100000 0
15625 -96875 0
18750 -96875 0
15625 -93750 0
18750 -93750 0
15625 -90625 0
18750 -90625 0
40625 -78125 0
43750 -78125 0
40625 -75000 0
43750 -75000 0
43750 -78125 0
46875 -78125 0
43750 -75000 0
46875 -75000 0
40625 -75000 0
43750 -75000 0
40625 -71875 0
43750 -71875 0
43750 -75000 0
46875 -75000 0
43750 -71875 0
46875 -71875 0
40625 -65625 0
43750 -65625 0
40625 -62500 0
43750 -62500 0
43750 -65625 0
46875 -65625 0
43750 -62500 0
46875 -62500 0
53125 -100000 0
56250 -100000 0
53125 -96875 0
56250 -96875 0
81250 -100000 0
84375 -100000 0
81250 -96875 0
84375 -96875 0
81250 -84375 0
84375 -84375 0
81250 -81250 0
84375 -81250 0
84375 -84375 0
87500 -84375 0
84375 -81250 0
87500 -81250 0
78125 -81250 0
81250 -81250 0
78125 -78125 0
81250 -78125 0
81250 -81250 0
84375 -81250 0
81250 -78125 0
84375 -78125 0
106250 -81250 0
109375 -81250 0
106250 -78125 0
109375 -78125 0
131250 -100000 0
134375 -100000 0
131250 -96875 0
134375 -96875 0
131250 -96875 0
134375 -96875 0
131250 -93750 0
134375 -93750 0
140625 -100000 0
143750 -100000 0
140625 -96875 0
143750 -96875 0
140625 -96875 0
143750 -96875 0
140625 -93750 0
143750 -93750 0
143750 -100000 0
146875 -100000 0
143750 -96875 0
146875 -96875 0
143750 -96875 0
146875 -96875 0
143750 -93750 0
146875 -93750 0
140625 -93750 0
143750 -93750 0
140625 -90625 0
143750 -90625 0
140625 -90625 0
143750 -90625 0
140625 -87500 0
143750 -87500 0
143750 -93750 0
146875 -93750 0
143750 -90625 0
146875 -90625 0
143750 -90625 0
146875 -90625 0
143750 -87500 0
146875 -87500 0
146875 -90625 0
150000 -90625 0
146875 -87500 0
150000 -87500 0
134375 -87500 0
137500 -87500 0
134375 -84375 0
137500 -84375 0
131250 -84375 0
134375 -84375 0
131250 -81250 0
134375 -81250 0
134375 -84375 0
137500 -84375 0
134375 -81250 0
137500 -81250 0
128125 -81250 0
131250 -81250 0
128125 -78125 0
131250 -78125 0
128125 -78125 0
131250 -78125 0
128125 -75000 0
131250 -75000 0
93750 -56250 0
96875 -56250 0
93750 -53125 0
96875 -53125 0
96875 -56250 0
100000 -56250 0
96875 -53125 0
100000 -53125 0
93750 -53125 0
96875 -53125 0
93750 -50000 0
96875 -50000 0
96875 -53125 0
100000 -53125 0
96875 -50000 0
100000 -50000 0
137500 -87500 0
140625 -87500 0
137500 -84375 0
140625 -84375 0
140625 -87500 0
143750 -87500 0
140625 -84375 0
143750 -84375 0
137500 -84375 0
140625 -84375 0
137500 -81250 0
140625 -81250 0
140625 -84375 0
143750 -84375 0
140625 -81250 0
143750 -81250 0
143750 -87500 0
146875 -87500 0
143750 -84375 0
146875 -84375 0
146875 -87500 0
150000 -87500 0
146875 -84375 0
150000 -84375 0
143750 -84375 0
146875 -84375 0
143750 -81250 0
146875 -81250 0
68750 -50000 0
71875 -50000 0
68750 -46875 0
71875 -46875 0
71875 -50000 0
75000 -50000 0
71875 -46875 0
75000 -46875 0
68750 -46875 0
71875 -46875 0
68750 -43750 0
71875 -43750 0
71875 -46875 0
75000 -46875 0
71875 -43750 0
75000 -43750 0
143750 -81250 0
146875 -81250 0
143750 -78125 0
146875 -78125 0
143750 -78125 0
146875 -78125 0
143750 -75000 0
146875 -75000 0
121875 -75000 0
125000 -75000 0
121875 -71875 0
125000 -71875 0
109375 -59375 0
112500 -59375 0
109375 -56250 0
112500 -56250 0
112500 -59375 0
115625 -59375 0
112500 -56250 0
115625 -56250 0
115625 -59375 0
118750 -59375 0
115625 -56250 0
118750 -56250 0
118750 -59375 0
121875 -59375 0
118750 -56250 0
121875 -56250 0
121875 -59375 0
125000 -59375 0
121875 -56250 0
125000 -56250 0
140625 -6250 0
143750 -6250 0
140625 -3125 0
143750 -3125 0
140625 -3125 0
143750 -3125 0
140625 0 0
143750 0 0
143750 -6250 0
146875 -6250 0
143750 -3125 0
146875 -3125 0
143750 -3125 0
146875 -3125 0
143750 0 0
146875 0 0
75000 -50000 0
78125 -50000 0
75000 -46875 0
78125 -46875 0
78125 -50000 0
81250 -50000 0
78125 -46875 0
81250 -46875 0
75000 -46875 0
78125 -46875 0
75000 -43750 0
78125 -43750 0
78125 -46875 0
81250 -46875 0
78125 -43750 0
81250 -43750 0
81250 -50000 0
84375 -50000 0
81250 -46875 0
84375 -46875 0
84375 -50000 0
87500 -50000 0
84375 -46875 0
87500 -46875 0
81250 -46875 0
84375 -46875 0
81250 -43750 0
84375 -43750 0
84375 -46875 0
87500 -46875 0
84375 -43750 0
87500 -43750 0
81250 -43750 0
84375 -43750 0
81250 -40625 0
84375 -40625 0
84375 -43750 0
87500 -43750 0
84375 -40625 0
87500 -40625 0
81250 -40625 0
84375 -40625 0
81250 -37500 0
84375 -37500 0
84375 -40625 0
87500 -40625 0
84375 -37500 0
87500 -37500 0
112500 -100000 0
115625 -100000 0
112500 -96875 0
115625 -96875 0
115625 -100000 0
118750 -100000 0
115625 -96875 0
118750 -96875 0
112500 -96875 0
115625 -96875 0
112500 -93750 0
115625 -93750 0
115625 -96875 0
118750 -96875 0
115625 -93750 0
118750 -93750 0
112500 -93750 0
115625 -93750 0
112500 -90625 0
115625 -90625 0
115625 -93750 0
118750 -93750 0
115625 -90625 0
118750 -90625 0
112500 -90625 0
115625 -90625 0
112500 -87500 0
115625 -87500 0
115625 -90625 0
118750 -90625 0
115625 -87500 0
118750 -87500 0
118750 -93750 0
121875 -93750 0
118750 -90625 0
121875 -90625 0
121875 -93750 0
125000 -93750 0
121875 -90625 0
125000 -90625 0
118750 -90625 0
121875 -90625 0
118750 -87500 0
121875 -87500 0
121875 -90625 0
125000 -90625 0
121875 -87500 0
125000 -87500 0
112500 -87500 0
115625 -87500 0
112500 -84375 0
115625 -84375 0
115625 -87500 0
118750 -87500 0
115625 -84375 0
118750 -84375 0
112500 -84375 0
115625 -84375 0
112500 -81250 0
115625 -81250 0
115625 -84375 0
118750 -84375 0
115625 -81250 0
118750 -81250 0
112500 -81250 0
115625 -81250 0
112500 -78125 0
115625 -78125 0
115625 -81250 0
118750 -81250 0
115625 -78125 0
118750 -78125 0
112500 -78125 0
115625 -78125 0
112500 -75000 0
115625 -75000 0
115625 -78125 0
118750 -78125 0
115625 -75000 0
118750 -75000 0
118750 -81250 0
121875 -81250 0
[...]
POINT_DATA 52508
SCALARS history_field_xz double 1
LOOKUP_TABLE default
2.94551e+07 2.94551e+07 -1.50928e+07 -1.50928e+07 7.23285e+07 7.23285e+07 -4.22283e+06 -4.22283e+06 3.50373e+07 3.50373e+07 -1.37127e+07 -1.37127e+07 8.38098e+06 8.38098e+06 -4.57266e+07 -4.57266e+07 -7.63423e+07 -7.63423e+07 1.1542e+08 1.1542e+08 -9.06002e+07 -9.06002e+07 -1.2212e+06 -1.2212e+06 -1.43385e+08 -1.43385e+08 3.70859e+07 3.70859e+07 2.87131e+07 2.87131e+07 3.05691e+07 3.05691e+07 3.25986e+07 3.25986e+07 7.50314e+07 7.50314e+07 3.19335e+07 3.19335e+07 1.11697e+08 1.11697e+08 1.29096e+08 1.29096e+08 1.35908e+08 1.35908e+08 1.29575e+08 1.29575e+08 2.5852e+07 2.5852e+07 1.34178e+08 1.34178e+08 3.02245e+07 3.02245e+07 1.07677e+08 1.07677e+08 2.78445e+07 2.78445e+07 4.47631e+07 4.47631e+07 2.1275e+07 2.1275e+07 1.32497e+07 1.32497e+07 -7.75993e+06 -7.75993e+06 3.07624e+07 3.07624e+07 -1.41564e+07 -1.41564e+07 3.43157e+07 3.43157e+07 -4.52245e+07 -4.52245e+07 -4.76129e+07 -4.76129e+07 -1.0534e+08 -1.0534e+08 -6.03448e+07 -6.03448e+07 -1.40488e+08 -1.40488e+08 -1.0389e+08 -1.0389e+08 -8.32872e+07 -8.32872e+07 -1.44053e+08 -1.44053e+08 -1.34268e+08 -1.34268e+08 -1.10769e+07 -1.10769e+07 1.18315e+08 1.18315e+08 -4.63745e+07 -4.63745e+07 6.94093e+07 6.94093e+07 8.39651e+07 8.39651e+07 2.15352e+06 2.15352e+06 4.2293e+07 4.2293e+07 1.51559e+08 1.51559e+08 1.28869e+08 1.28869e+08 7.09896e+07 7.09896e+07 7.65157e+07 7.65157e+07 -6.99072e+07 -6.99072e+07 -21617.2 -21617.2 2.96274e+07 2.96274e+07 -5.4887e+07 -5.4887e+07 -6.1573e+07 -6.1573e+07 -1.53376e+07 -1.53376e+07 -3.39183e+07 -3.39183e+07 -1.527e+07 -1.527e+07 -4.05915e+07 -4.05915e+07 -3.06494e+07 -3.06494e+07 -1.00129e+08 -1.00129e+08 -3.42786e+07 -3.42786e+07 1.04253e+07 1.04253e+07 -1.15403e+08 -1.15403e+08 -1.08605e+08 -1.08605e+08 1.05575e+08 1.05575e+08 2.6397e+08 2.6397e+08 6.82609e+07 6.82609e+07 1.67317e+08 1.67317e+08 2.74242e+08 2.74242e+08 1.97698e+08 1.97698e+08 9.77646e+07 9.77646e+07 1.40371e+08 1.40371e+08 2.32473e+08 2.32473e+08 8.73027e+07 8.73027e+07 9.33665e+07 9.33665e+07 7.70346e+07 7.70346e+07 8.39947e+07 8.39947e+07 6.88471e+07 6.88471e+07 7.36855e+07 7.36855e+07 5.7528e+07 5.7528e+07 -2.54526e+07 -2.54526e+07 9.09056e+07 9.09056e+07 1.89983e+06 1.89983e+06 4.67725e+07 4.67725e+07 7.14494e+07 7.14494e+07 8.16069e+07 8.16069e+07 -3.28408e+06 -3.28408e+06 8.09499e+07 8.09499e+07 1.10449e+07 1.10449e+07 6.88886e+07 6.88886e+07 1.5895e+08 1.5895e+08 6.66458e+07 6.66458e+07 7.02603e+07 7.02603e+07 5.49175e+07 5.49175e+07 3.91928e+07 3.91928e+07 1.03401e+07 1.03401e+07 1.75037e+08 1.75037e+08 2.08118e+08 2.08118e+08 1.23025e+08 1.23025e+08 1.44621e+08 1.44621e+08 2.16165e+08 2.16165e+08 3.96783e+08 3.96783e+08 1.70264e+08 1.70264e+08 1.6187e+08 1.6187e+08 9.604e+07 9.604e+07 8.44874e+07 8.44874e+07 7.53866e+07 7.53866e+07 8.38629e+07 8.38629e+07 6.9765e+07 6.9765e+07 8.42151e+07 8.42151e+07 7.30643e+07 7.30643e+07 4.52067e+06 4.52067e+06 -5.65382e+07 -5.65382e+07 -6.19898e+07 -6.19898e+07 -4.3053e+07 -4.3053e+07 -4.66829e+07 -4.66829e+07 -5.3674e+07 -5.3674e+07 -1.05398e+08 -1.05398e+08 -6.40558e+07 -6.40558e+07 -9.28758e+07 -9.28758e+07 1.57227e+09 1.57227e+09 1.72032e+09 1.72032e+09 1.66115e+09 1.66115e+09 8.90472e+08 8.90472e+08 1.28551e+09 1.28551e+09 1.02889e+09 1.02889e+09 1.4282e+09 1.4282e+09 1.36788e+09 1.36788e+09 1.20669e+09 1.20669e+09 1.41041e+09 1.41041e+09 -2.01718e+08 -2.01718e+08 -3.07058e+08 -3.07058e+08 -6.63372e+07 -6.63372e+07 -2.24752e+08 -2.24752e+08 -3.71827e+08 -3.71827e+08 -3.94216e+08 -3.94216e+08 -2.774e+08 -2.774e+08 1.19424e+08 1.19424e+08 -3.59172e+08 -3.59172e+08 -1.94975e+08 -1.94975e+08 -4.63922e+08 -4.63922e+08 -1.87617e+08 -1.87617e+08 -9.67215e+08 -9.67215e+08 -8.77037e+08 -8.77037e+08 -1.06344e+09 -1.06344e+09 -9.5617e+08 -9.5617e+08 -5.99158e+08 -5.99158e+08 -5.0731e+08 -5.0731e+08 -8.27778e+08 -8.27778e+08 -1.03441e+09 -1.03441e+09 -1.45936e+09 -1.45936e+09 -1.05436e+09 -1.05436e+09 -5.01701e+08 -5.01701e+08 -9.66518e+08 -9.66518e+08 2.12867e+08 2.12867e+08 1.7861e+08 1.7861e+08 -5.57379e+07 -5.57379e+07 -2.07094e+08 -2.07094e+08 -2.1329e+08 -2.1329e+08 -1.0783e+08 -1.0783e+08 5.90101e+08 5.90101e+08 1.34138e+08 1.34138e+08 1.45175e+08 1.45175e+08 1.1815e+08 1.1815e+08 -2.63991e+08 -2.63991e+08 5.14635e+07 5.14635e+07 5.19949e+07 5.19949e+07 -5.6229e+07 -5.6229e+07 1.20372e+08 1.20372e+08 -4.76958e+07 -4.76958e+07 -4.84089e+07 -4.84089e+07 -3.94679e+08 -3.94679e+08 -5.35272e+07 -5.35272e+07 2.30874e+08 2.30874e+08 2.21285e+08 2.21285e+08 7.86515e+06 7.86515e+06 5.17677e+08 5.17677e+08 1.24584e+08 1.24584e+08 5.54902e+08 5.54902e+08 -1.7958e+08 -1.7958e+08 2.75524e+08 2.75524e+08 -6.59961e+07 -6.59961e+07 -1.83903e+08 -1.83903e+08 -9.91133e+07 -9.91133e+07 2.95906e+08 2.95906e+08 1.08465e+08 1.08465e+08 1.10471e+08 1.10471e+08 1.94063e+06 1.94063e+06 2.21353e+08 2.21353e+08 6.98365e+07 6.98365e+07 4.44554e+08 4.44554e+08 3.80519e+07 3.80519e+07 6.36942e+07 6.36942e+07 2.47469e+08 2.47469e+08 3.99738e+07 3.99738e+07 1.75517e+08 1.75517e+08 5.11858e+07 5.11858e+07 -2.70671e+07 -2.70671e+07 -3.67902e+08 -3.67902e+08 -1.40882e+08 -1.40882e+08 -7.86131e+06 -7.86131e+06 -5.93883e+07 -5.93883e+07 -1.42083e+08 -1.42083e+08 -6.59659e+07 -6.59659e+07 4.0289e+07 4.0289e+07 -3.88597e+08 -3.88597e+08 1.6364e+08 1.6364e+08 1.87989e+08 1.87989e+08 -3.88597e+08 -3.88597e+08 -2.7967e+08 -2.7967e+08 -3.56168e+08 -3.56168e+08 -4.52101e+08 -4.52101e+08 -3.48866e+08 -3.48866e+08 -4.23662e+08 -4.23662e+08 -4.92395e+08 -4.92395e+08 -6.04093e+08 -6.04093e+08 -4.56163e+08 -4.56163e+08 -4.5077e+08 -4.5077e+08 -3.13037e+08 -3.13037e+08 -1.93957e+08 -1.93957e+08 -1.93245e+08 -1.93245e+08 2.10148e+08 2.10148e+08 1.03381e+09 1.03381e+09 6.36629e+08 6.36629e+08 7.26195e+08 7.26195e+08 2.47258e+07 2.47258e+07 5.50623e+08 5.50623e+08 3.62927e+08 3.62927e+08 4.28898e+08 4.28898e+08 3.57179e+08 3.57179e+08 3.13351e+08 3.13351e+08 2.99569e+08 2.99569e+08 -5.33367e+07 -5.33367e+07 2.83646e+08 2.83646e+08 5.53376e+07 5.53376e+07 -3.51877e+08 -3.51877e+08 -3.58302e+08 -3.58302e+08 -1.25249e+09 -1.25249e+09 -8.29236e+08 -8.29236e+08 -4.31686e+08 -4.31686e+08 -4.33053e+08 -4.33053e+08 2.44309e+08 2.44309e+08 -2.65754e+08 -2.65754e+08 -1.3065e+08 -1.3065e+08 -2.32788e+08 -2.32788e+08 -1.71744e+08 -1.71744e+08 -1.27265e+08 -1.27265e+08 -9.59602e+07 -9.59602e+07 -1.66465e+08 -1.66465e+08 1.75895e+08 1.75895e+08 -1.86135e+08 -1.86135e+08 -3.07548e+08 -3.07548e+08 -2.99494e+08 -2.99494e+08 -5.00469e+08 -5.00469e+08 -3.13227e+08 -3.13227e+08 -3.63691e+08 -3.63691e+08 -5.0542e+08 -5.0542e+08 -8.27665e+08 -8.27665e+08 -3.60899e+08 -3.60899e+08 -7.38197e+08 -7.38197e+08 -8.24873e+08 -8.24873e+08 -6.45371e+08 -6.45371e+08 -7.43217e+08 -7.43217e+08 -7.95351e+08 -7.95351e+08 -6.48493e+08 -6.48493e+08 -3.70616e+08 -3.70616e+08 -2.4504e+08 -2.4504e+08 -3.95566e+08 -3.95566e+08 -9.08351e+08 -9.08351e+08 -4.88895e+08 -4.88895e+08 -4.01868e+08 -4.01868e+08 -2.08686e+08 -2.08686e+08 -4.95197e+08 -4.95197e+08 -3.5265e+06 -3.5265e+06 -2.08686e+08 -2.08686e+08 1.24342e+08 1.24342e+08 -3.5265e+06 -3.5265e+06 1.648e+08 1.648e+08 1.21307e+08 1.21307e+08 3.71253e+08 3.71253e+08 1.63421e+08 1.63421e+08 1.18685e+08 1.18685e+08 7.63777e+08 7.63777e+08 5.19791e+08 5.19791e+08 4.54308e+08 4.54308e+08 4.84711e+08 4.84711e+08 5.16236e+08 5.16236e+08 5.69317e+08 5.69317e+08 4.82452e+08 4.82452e+08 6.75454e+08 6.75454e+08 3.69364e+08 3.69364e+08 2.67911e+08 2.67911e+08 1.17454e+08 1.17454e+08 2.38388e+08 2.38388e+08 2.70594e+08 2.70594e+08 2.79506e+08 2.79506e+08 2.39775e+08 2.39775e+08 4.70641e+08 4.70641e+08 2.80902e+08 2.80902e+08 4.62706e+08 4.62706e+08 4.72037e+08 4.72037e+08 4.63925e+08 4.63925e+08 -2.46484e+07 -2.46484e+07 -2.62615e+08 -2.62615e+08 4.473e+06 4.473e+06 2.66336e+08 2.66336e+08 1.00293e+09 1.00293e+09 5.82713e+08 5.82713e+08 5.6004e+08 5.6004e+08 7.58356e+08 7.58356e+08 6.80793e+08 6.80793e+08 6.27266e+08 6.27266e+08 8.59369e+08 8.59369e+08 7.13742e+08 7.13742e+08 5.44923e+08 5.44923e+08 2.2107e+08 2.2107e+08 1.88583e+08 1.88583e+08 2.24544e+08 2.24544e+08 1.68236e+08 1.68236e+08 -3.94163e+07 -3.94163e+07 1.72409e+08 1.72409e+08 1.0238e+08 1.0238e+08 -1.86407e+07 -1.86407e+07 2.96553e+07 2.96553e+07 -4.83562e+08 -4.83562e+08 1.06385e+08 1.06385e+08 7.74746e+07 7.74746e+07 1.08553e+08 1.08553e+08 1.48669e+08 1.48669e+08 3.61911e+08 3.61911e+08 9.53457e+08 9.53457e+08 9.5328e+08 9.5328e+08 3.39948e+08 3.39948e+08 8.22476e+08 8.22476e+08 1.01638e+09 1.01638e+09 1.09458e+09 1.09458e+09 8.81579e+08 8.81579e+08 1.20371e+09 1.20371e+09 2.34806e+08 2.34806e+08 1.71661e+08 1.71661e+08 -2.44755e+08 -2.44755e+08 1.16354e+08 1.16354e+08 2.06212e+08 2.06212e+08 9.72928e+07 9.72928e+07 1.59631e+08 1.59631e+08 9.12467e+08 9.12467e+08 5.33235e+08 5.33235e+08 1.72948e+08 1.72948e+08 -1.96287e+08 -1.96287e+08 2.4192e+08 2.4192e+08 1.46475e+08 1.46475e+08 6.95798e+07 6.95798e+07 1.95345e+08 1.95345e+08 7.85349e+08 7.85349e+08 1.65381e+07 1.65381e+07 -8.09371e+07 -8.09371e+07 8.18163e+07 8.18163e+07 -3.07585e+08 -3.07585e+08 -3.40362e+07 -3.40362e+07 -5.57549e+08 -5.57549e+08 -2.87624e+08 -2.87624e+08 -2.46249e+08 -2.46249e+08 -1.54394e+08 -1.54394e+08 -5.64514e+07 -5.64514e+07 -2.02659e+08 -2.02659e+08 1.08666e+08 1.08666e+08 -1.79712e+08 -1.79712e+08 -1.12445e+08 -1.12445e+08 -1.31265e+07 -1.31265e+07 -2.00212e+08 -2.00212e+08 6.48433e+08 6.48433e+08 4.92216e+08 4.92216e+08 4.26602e+08 4.26602e+08 2.70799e+08 2.70799e+08 5.37941e+08 5.37941e+08 8.47766e+07 8.47766e+07 3.15365e+08 3.15365e+08 1.22313e+08 1.22313e+08 1.06313e+08 1.06313e+08 7.42284e+07 7.42284e+07 -4.05329e+08 -4.05329e+08 -2.23033e+06 -2.23033e+06 8.22753e+07 8.22753e+07 1.21691e+08 1.21691e+08 3.50628e+07 3.50628e+07 7.44819e+07 7.44819e+07 -2.31141e+07 -2.31141e+07 -1.26422e+08 -1.26422e+08 -3.32533e+07 -3.32533e+07 6.05603e+06 6.05603e+06 -1.04203e+08 -1.04203e+08 2.87227e+07 2.87227e+07 -4.56628e+07 -4.56628e+07 -1.65014e+07 -1.65014e+07 -1.0603e+08 -1.0603e+08 -1.88805e+07 -1.88805e+07 -1.34108e+08 -1.34108e+08 -9.65944e+07 -9.65944e+07 -8.05698e+06 -8.05698e+06 -1.01064e+08 -1.01064e+08 4.52717e+07 4.52717e+07 -1.85711e+08 -1.85711e+08 8.39774e+08 8.39774e+08 6.50824e+08 6.50824e+08 6.20567e+08 6.20567e+08 4.44056e+08 4.44056e+08 6.66552e+08 6.66552e+08 5.25754e+08 5.25754e+08 4.36798e+08 4.36798e+08 4.71382e+08 4.71382e+08 5.18744e+08 5.18744e+08 3.54966e+08 3.54966e+08 2.31693e+08 2.31693e+08 3.02432e+08 3.02432e+08 3.34058e+08 3.34058e+08 2.51211e+08 2.51211e+08 2.85888e+08 2.85888e+08 1.65124e+08 1.65124e+08 5.26688e+08 5.26688e+08 1.53777e+08 1.53777e+08 4.97443e+08 4.97443e+08 5.63489e+08 5.63489e+08 2.01171e+08 2.01171e+08 4.92982e+08 4.92982e+08 5.79599e+08 5.79599e+08 1.07832e+08 1.07832e+08 4.89416e+08 4.89416e+08 2.64659e+08 2.64659e+08 2.89814e+08 2.89814e+08 2.37952e+08 2.37952e+08 1.61101e+08 1.61101e+08 2.11232e+08 2.11232e+08 3.27318e+08 3.27318e+08 4.29192e+08 4.29192e+08 4.34039e+08 4.34039e+08 5.01101e+08 5.01101e+08 7.18973e+07 7.18973e+07 2.5452e+08 2.5452e+08 5.01101e+08 5.01101e+08 9.7387e+07 9.7387e+07 2.5452e+08 2.5452e+08 4.29745e+08 4.29745e+08 1.56774e+08 1.56774e+08 3.23864e+08 3.23864e+08 3.15145e+08 3.15145e+08 4.43682e+08 4.43682e+08 2.88598e+08 2.88598e+08 2.8599e+08 2.8599e+08 4.31757e+08 4.31757e+08 4.7736e+08 4.7736e+08 1.91707e+08 1.91707e+08 1.28382e+08 1.28382e+08 5.18719e+08 5.18719e+08 5.9423e+07 5.9423e+07 1.53748e+08 1.53748e+08 -1.73223e+08 -1.73223e+08 7.23839e+07 7.23839e+07 -7.471e+06 -7.471e+06 4.55384e+08 4.55384e+08 2.64188e+08 2.64188e+08 3.96489e+08 3.96489e+08 5.06529e+08 5.06529e+08 6.09878e+07 6.09878e+07 9.21662e+07 9.21662e+07 5.32586e+08 5.32586e+08 1.61657e+08 1.61657e+08 2.6992e+08 2.6992e+08 5.14468e+07 5.14468e+07 3.04881e+08 3.04881e+08 1.45821e+08 1.45821e+08 6.52637e+07 6.52637e+07 -5.41034e+07 -5.41034e+07 1.37444e+08 1.37444e+08 6.88894e+07 6.88894e+07 2.72455e+08 2.72455e+08 1.49284e+08 1.49284e+08 2.42975e+08 2.42975e+08 2.04273e+08 2.04273e+08 1.90446e+08 1.90446e+08 1.05421e+08 1.05421e+08 2.1208e+08 2.1208e+08 2.96915e+08 2.96915e+08 -7.27031e+08 -7.27031e+08 -8.41287e+08 -8.41287e+08 -1.40308e+08 -1.40308e+08 -2.71823e+08 -2.71823e+08 -7.78304e+08 -7.78304e+08 -5.78531e+08 -5.78531e+08 -2.71823e+08 -2.71823e+08 -1.33269e+08 -1.33269e+08 4.59535e+08 4.59535e+08 2.33343e+08 2.33343e+08 1.30789e+08 1.30789e+08 -7.80356e+07 -7.80356e+07 1.45484e+08 1.45484e+08 -3.44469e+08 -3.44469e+08 -1.04178e+08 -1.04178e+08 -3.10912e+08 -3.10912e+08 8.7239e+07 8.7239e+07 -1.48513e+08 -1.48513e+08 1.08002e+08 1.08002e+08 4.08863e+08 4.08863e+08 -1.10596e+07 -1.10596e+07 -6.15973e+08 -6.15973e+08 5.42712e+08 5.42712e+08 1.38143e+09 1.38143e+09 2.34617e+08 2.34617e+08 7.27536e+08 7.27536e+08 4.90567e+08 4.90567e+08 6.16053e+08 6.16053e+08 7.27536e+08 7.27536e+08 1.6995e+09 1.6995e+09 6.13465e+08 6.13465e+08 5.43269e+08 5.43269e+08 1.66166e+09 1.66166e+09 8.96894e+08 8.96894e+08 5.05163e+08 5.05163e+08 3.03471e+08 3.03471e+08 8.96894e+08 8.96894e+08 -6.31073e+08 -6.31073e+08 3.50143e+08 3.50143e+08 -7.50887e+07 -7.50887e+07 7.93606e+07 7.93606e+07 -1.84265e+08 -1.84265e+08 -3.02187e+07 -3.02187e+07 -8.0391e+07 -8.0391e+07 -1.84265e+08 -1.84265e+08 -2.21958e+08 -2.21958e+08 -9.18602e+07 -9.18602e+07 -1.05948e+08 -1.05948e+08 -6.68501e+07 -6.68501e+07 -9.81481e+07 -9.81481e+07 -7.54499e+07 -7.54499e+07 3.57099e+07 3.57099e+07 -9.81481e+07 -9.81481e+07 6.65624e+07 6.65624e+07 7.44121e+07 7.44121e+07 -1.93205e+07 -1.93205e+07 -1.43606e+08 -1.43606e+08 -2.31299e+08 -2.31299e+08 -7.29275e+07 -7.29275e+07 -1.84614e+08 -1.84614e+08 -3.12787e+08 -3.12787e+08 -1.22701e+08 -1.22701e+08 -1.28512e+08 -1.28512e+08 -3.0406e+08 -3.0406e+08 1.56945e+08 1.56945e+08 -9.78288e+07 -9.78288e+07 -1.79674e+07 -1.79674e+07 -1.27229e+08 -1.27229e+08 -1.28079e+08 -1.28079e+08 -1.13276e+08 -1.13276e+08 -1.58885e+08 -1.58885e+08 -3.17621e+08 -3.17621e+08 -2.3115e+08 -2.3115e+08 -2.18185e+08 -2.18185e+08 -5.49518e+07 -5.49518e+07 -1.55274e+08 -1.55274e+08 -2.40547e+08 -2.40547e+08 -2.7778e+08 -2.7778e+08 -1.55274e+08 -1.55274e+08 -2.08913e+08 -2.08913e+08 2.94243e+06 2.94243e+06 -2.42553e+08 -2.42553e+08 -1.18451e+08 -1.18451e+08 1.29205e+08 1.29205e+08 -2.39033e+08 -2.39033e+08 -6.6832e+07 -6.6832e+07 -6.64923e+07 -6.64923e+07 -1.15576e+08 -1.15576e+08 -4.29974e+08 -4.29974e+08 2.22374e+08 2.22374e+08 -2.33435e+08 -2.33435e+08 -3.94372e+08 -3.94372e+08 3.16147e+08 3.16147e+08 1.2748e+07 1.2748e+07 -4.55885e+08 -4.55885e+08 2.0279e+08 2.0279e+08 -5.853e+07 -5.853e+07 -1.03833e+08 -1.03833e+08 5.77664e+07 5.77664e+07 5.30553e+07 5.30553e+07 -9.16185e+07 -9.16185e+07 -1.1119e+08 -1.1119e+08 1.34062e+07 1.34062e+07 -2.47044e+08 -2.47044e+08 -9.3542e+07 -9.3542e+07 -3.7499e+08 -3.7499e+08 -2.54314e+08 -2.54314e+08 -2.83549e+08 -2.83549e+08 -2.64352e+08 -2.64352e+08 -5.78372e+08 -5.78372e+08 -3.42094e+08 -3.42094e+08 -5.62051e+08 -5.62051e+08 -1.51737e+08 -1.51737e+08 -4.08988e+08 -4.08988e+08 -3.5743e+08 -3.5743e+08 -3.52312e+08 -3.52312e+08 -4.05505e+08 -4.05505e+08 -6.21883e+08 -6.21883e+08 -3.49996e+08 -3.49996e+08 -4.51596e+08 -4.51596e+08 -5.94726e+08 -5.94726e+08 -7.20625e+08 -7.20625e+08 -5.82176e+08 -5.82176e+08 -6.82548e+08 -6.82548e+08 -7.48467e+08 -7.48467e+08 -1.33227e+09 -1.33227e+09 -7.02476e+08 -7.02476e+08 -8.4264e+08 -8.4264e+08 -4.55702e+08 -4.55702e+08 -6.35045e+08 -6.35045e+08 -3.03379e+08 -3.03379e+08 -4.64766e+08 -4.64766e+08 -6.59383e+08 -6.59383e+08 -7.61047e+08 -7.61047e+08 -5.01307e+08 -5.01307e+08 -5.31516e+08 -5.31516e+08 1.80396e+08 1.80396e+08 4.80779e+07 4.80779e+07 3.4582e+08 3.4582e+08 1.39909e+08 1.39909e+08 7.38322e+07 7.38322e+07 2.08567e+07 2.08567e+07 1.98758e+08 1.98758e+08 -1.00924e+07 -1.00924e+07 -7.26002e+06 -7.26002e+06 1.1918e+08 1.1918e+08 -7.90898e+07 -7.90898e+07 -5.53784e+07 -5.53784e+07 1.1918e+08 1.1918e+08 3.18752e+08 3.18752e+08 -5.64054e+07 -5.64054e+07 2.57006e+08 2.57006e+08 2.09811e+07 2.09811e+07 -1.75083e+08 -1.75083e+08 -737896 -737896 1.61757e+08 1.61757e+08 -1.75083e+08 -1.75083e+08 -2.823e+07 -2.823e+07 -2.40371e+08 -2.40371e+08 -5.18206e+06 -5.18206e+06 -4.34137e+07 -4.34137e+07 3.51433e+07 3.51433e+07 -1.4689e+08 -1.4689e+08 3.74936e+07 3.74936e+07 3.51433e+07 3.51433e+07 -1.47555e+07 -1.47555e+07 7.63864e+06 7.63864e+06 1.07364e+08 1.07364e+08 2.11222e+08 2.11222e+08 1.81008e+08 1.81008e+08 2.30182e+08 2.30182e+08 1.41738e+08 1.41738e+08 1.81008e+08 1.81008e+08 2.45425e+08 2.45425e+08 1.43951e+08 1.43951e+08 9.65772e+07 9.65772e+07 1.03896e+08 1.03896e+08 3.44995e+07 3.44995e+07 -1.13634e+08 -1.13634e+08 -1.1944e+07 -1.1944e+07 3.44995e+07 3.44995e+07 3.04138e+07 3.04138e+07 -4.35833e+07 -4.35833e+07 8.76192e+06 8.76192e+06 2.18509e+08 2.18509e+08 1.08264e+08 1.08264e+08 7.15876e+07 7.15876e+07 9.48675e+07 9.48675e+07 1.08264e+08 1.08264e+08 -9.42939e+07 -9.42939e+07 1.14204e+08 1.14204e+08 1.49743e+08 1.49743e+08 2.90619e+07 2.90619e+07 7.66e+07 7.66e+07 3.86229e+07 3.86229e+07 -3.89839e+08 -3.89839e+08 7.66e+07 7.66e+07 6.69344e+07 6.69344e+07 -4.8432e+07 -4.8432e+07 -2.24428e+08 -2.24428e+08 1.5851e+09 1.5851e+09 8.7137e+08 8.7137e+08 3.61112e+08 3.61112e+08 5.93543e+08 5.93543e+08 8.7137e+08 8.7137e+08 5.21888e+08 5.21888e+08 6.00652e+08 6.00652e+08 4.20068e+08 4.20068e+08 1.28471e+07 1.28471e+07 2.7049e+08 2.7049e+08 8.79273e+08 8.79273e+08 2.24536e+08 2.24536e+08 -5.7809e+07 -5.7809e+07 1.05581e+08 1.05581e+08 2.29136e+08 2.29136e+08 -3.34095e+07 -3.34095e+07 5.64277e+08 5.64277e+08 -1.84402e+07 -1.84402e+07 4.05522e+08 4.05522e+08 1.15313e+08 1.15313e+08 -4.59198e+07 -4.59198e+07 -6.94215e+08 -6.94215e+08 1.12969e+08 1.12969e+08 -3.18373e+08 -3.18373e+08 9.59733e+07 9.59733e+07 1.03847e+08 1.03847e+08 -3.86835e+07 -3.86835e+07 4.24314e+07 4.24314e+07 1.09999e+08 1.09999e+08 3.04023e+08 3.04023e+08 4.83797e+07 4.83797e+07 4.11431e+08 4.11431e+08 -3.59749e+08 -3.59749e+08 -1.39288e+08 -1.39288e+08 -1.70903e+08 -1.70903e+08 -7.90289e+07 -7.90289e+07 -1.64779e+08 -1.64779e+08 -1.59902e+08 -1.59902e+08 -7.45232e+07 -7.45232e+07 -6.71866e+07 -6.71866e+07 -5.12681e+07 -5.12681e+07 -7.41621e+06 -7.41621e+06 -5.54879e+07 -5.54879e+07 7.51799e+07 7.51799e+07 -9.14034e+06 -9.14034e+06 9.36744e+07 9.36744e+07 8.58746e+07 8.58746e+07 2.64073e+08 2.64073e+08 -1.30195e+08 -1.30195e+08 -6.25153e+06 -6.25153e+06 -6.51617e+07 -6.51617e+07 1.11316e+08 1.11316e+08 -2.86463e+07 -2.86463e+07 -2.28383e+08 -2.28383e+08 1.08396e+08 1.08396e+08 2.52993e+08 2.52993e+08 9.98927e+07 9.98927e+07 2.18332e+08 2.18332e+08 2.52777e+08 2.52777e+08 2.17739e+08 2.17739e+08 2.07228e+08 2.07228e+08 5.15649e+08 5.15649e+08 2.29636e+08 2.29636e+08 2.43295e+08 2.43295e+08 6.47864e+07 6.47864e+07 1.55869e+08 1.55869e+08 1.65464e+08 1.65464e+08 2.95315e+08 2.95315e+08 1.37578e+08 1.37578e+08 3.37291e+08 3.37291e+08 2.90458e+08 2.90458e+08 1.54927e+08 1.54927e+08 3.23139e+08 3.23139e+08 2.67554e+08 2.67554e+08 3.75791e+08 3.75791e+08 2.12175e+08 2.12175e+08 1.65512e+08 1.65512e+08 7.75048e+07 7.75048e+07 2.25078e+08 2.25078e+08 2.96681e+08 2.96681e+08 2.56475e+08 2.56475e+08 1.94447e+08 1.94447e+08 7.84132e+07 7.84132e+07 1.7048e+08 1.7048e+08 2.14826e+08 2.14826e+08 1.2351e+08 1.2351e+08 2.2833e+08 2.2833e+08 1.77435e+08 1.77435e+08 1.6431e+08 1.6431e+08 2.41593e+08 2.41593e+08 3.49986e+08 3.49986e+08 3.77586e+08 3.77586e+08 2.19636e+08 2.19636e+08 3.00353e+08 3.00353e+08 3.74893e+08 3.74893e+08 5.19825e+08 5.19825e+08 -2.06709e+08 -2.06709e+08 -1.96146e+08 -1.96146e+08 -1.98715e+08 -1.98715e+08 -1.53436e+08 -1.53436e+08 -1.79756e+08 -1.79756e+08 -1.01214e+08 -1.01214e+08 -1.48433e+08 -1.48433e+08 -5.48765e+07 -5.48765e+07 -9.62106e+07 -9.62106e+07 -1.31775e+08 -1.31775e+08 -4.0146e+07 -4.0146e+07 -4.81551e+07 -4.81551e+07 -1.17589e+08 -1.17589e+08 -1.82172e+08 -1.82172e+08 -4.9299e+07 -4.9299e+07 -3.36321e+06 -3.36321e+06 -3.41001e+07 -3.41001e+07 6.8247e+07 6.8247e+07 -8.49926e+07 -8.49926e+07 2.73803e+08 2.73803e+08 2.838e+07 2.838e+07 1.64186e+08 1.64186e+08 2.69522e+08 2.69522e+08 3.48791e+08 3.48791e+08 6.17068e+08 6.17068e+08 5.6816e+08 5.6816e+08 -1.02377e+08 -1.02377e+08 2.1859