# vtk DataFile Version 3.0
#This file was generated by the deal.II library on 2016/5/13 at 16:44:16
ASCII
DATASET UNSTRUCTURED_GRID

POINTS 18272 double
162500 -100000 0
175000 -100000 0
162500 -87500 0
175000 -87500 0
162500 -87500 0
175000 -87500 0
162500 -75000 0
175000 -75000 0
112500 -50000 0
125000 -50000 0
112500 -37500 0
125000 -37500 0
125000 -25000 0
137500 -25000 0
125000 -12500 0
137500 -12500 0
125000 -50000 0
137500 -50000 0
125000 -37500 0
137500 -37500 0
137500 -50000 0
150000 -50000 0
137500 -37500 0
150000 -37500 0
162500 -12500 0
175000 -12500 0
162500 0 0
175000 0 0
125000 -75000 0
137500 -75000 0
125000 -62500 0
137500 -62500 0
137500 -75000 0
150000 -75000 0
137500 -62500 0
150000 -62500 0
125000 -62500 0
137500 -62500 0
125000 -50000 0
137500 -50000 0
137500 -62500 0
150000 -62500 0
137500 -50000 0
150000 -50000 0
175000 -100000 0
187500 -100000 0
175000 -87500 0
187500 -87500 0
187500 -100000 0
200000 -100000 0
187500 -87500 0
200000 -87500 0
175000 -87500 0
187500 -87500 0
175000 -75000 0
187500 -75000 0
187500 -87500 0
200000 -87500 0
187500 -75000 0
200000 -75000 0
150000 -75000 0
162500 -75000 0
150000 -62500 0
162500 -62500 0
162500 -75000 0
175000 -75000 0
162500 -62500 0
175000 -62500 0
150000 -62500 0
162500 -62500 0
150000 -50000 0
162500 -50000 0
162500 -62500 0
175000 -62500 0
162500 -50000 0
175000 -50000 0
175000 -75000 0
187500 -75000 0
175000 -62500 0
187500 -62500 0
187500 -75000 0
200000 -75000 0
187500 -62500 0
200000 -62500 0
175000 -62500 0
187500 -62500 0
175000 -50000 0
187500 -50000 0
187500 -62500 0
200000 -62500 0
187500 -50000 0
200000 -50000 0
150000 -50000 0
162500 -50000 0
150000 -37500 0
162500 -37500 0
162500 -50000 0
175000 -50000 0
162500 -37500 0
175000 -37500 0
150000 -37500 0
162500 -37500 0
150000 -25000 0
162500 -25000 0
162500 -37500 0
175000 -37500 0
162500 -25000 0
175000 -25000 0
175000 -50000 0
187500 -50000 0
175000 -37500 0
187500 -37500 0
187500 -50000 0
200000 -50000 0
187500 -37500 0
200000 -37500 0
175000 -37500 0
187500 -37500 0
175000 -25000 0
187500 -25000 0
187500 -37500 0
200000 -37500 0
187500 -25000 0
200000 -25000 0
175000 -25000 0
187500 -25000 0
175000 -12500 0
187500 -12500 0
187500 -25000 0
200000 -25000 0
187500 -12500 0
200000 -12500 0
175000 -12500 0
187500 -12500 0
175000 0 0
187500 0 0
187500 -12500 0
200000 -12500 0
187500 0 0
200000 0 0
87500 -75000 0
93750 -75000 0
87500 -68750 0
93750 -68750 0
43750 -43750 0
50000 -43750 0
43750 -37500 0
50000 -37500 0
75000 -56250 0
81250 -56250 0
75000 -50000 0
81250 -50000 0
81250 -56250 0
87500 -56250 0
81250 -50000 0
87500 -50000 0
87500 -62500 0
93750 -62500 0
87500 -56250 0
93750 -56250 0
93750 -62500 0
100000 -62500 0
93750 -56250 0
100000 -56250 0
87500 -56250 0
93750 -56250 0
87500 -50000 0
93750 -50000 0
93750 -56250 0
100000 -56250 0
93750 -50000 0
100000 -50000 0
56250 -50000 0
62500 -50000 0
56250 -43750 0
62500 -43750 0
50000 -43750 0
56250 -43750 0
50000 -37500 0
56250 -37500 0
62500 -50000 0
68750 -50000 0
62500 -43750 0
68750 -43750 0
68750 -50000 0
75000 -50000 0
68750 -43750 0
75000 -43750 0
75000 -50000 0
81250 -50000 0
75000 -43750 0
81250 -43750 0
81250 -50000 0
87500 -50000 0
81250 -43750 0
87500 -43750 0
75000 -43750 0
81250 -43750 0
75000 -37500 0
81250 -37500 0
118750 -100000 0
125000 -100000 0
118750 -93750 0
125000 -93750 0
118750 -87500 0
125000 -87500 0
118750 -81250 0
125000 -81250 0
100000 -68750 0
106250 -68750 0
100000 -62500 0
106250 -62500 0
106250 -68750 0
112500 -68750 0
106250 -62500 0
112500 -62500 0
118750 -25000 0
125000 -25000 0
118750 -18750 0
125000 -18750 0
118750 -18750 0
125000 -18750 0
118750 -12500 0
125000 -12500 0
118750 -6250 0
125000 -6250 0
118750 0 0
125000 0 0
106250 -37500 0
112500 -37500 0
106250 -31250 0
112500 -31250 0
112500 -37500 0
118750 -37500 0
112500 -31250 0
118750 -31250 0
118750 -37500 0
125000 -37500 0
118750 -31250 0
125000 -31250 0
112500 -31250 0
118750 -31250 0
112500 -25000 0
118750 -25000 0
118750 -31250 0
125000 -31250 0
118750 -25000 0
125000 -25000 0
87500 -50000 0
93750 -50000 0
87500 -43750 0
93750 -43750 0
93750 -50000 0
100000 -50000 0
93750 -43750 0
100000 -43750 0
87500 -43750 0
93750 -43750 0
87500 -37500 0
93750 -37500 0
93750 -43750 0
100000 -43750 0
93750 -37500 0
100000 -37500 0
87500 -37500 0
93750 -37500 0
87500 -31250 0
93750 -31250 0
93750 -37500 0
100000 -37500 0
93750 -31250 0
100000 -31250 0
87500 -31250 0
93750 -31250 0
87500 -25000 0
93750 -25000 0
93750 -31250 0
100000 -31250 0
93750 -25000 0
100000 -25000 0
100000 -87500 0
106250 -87500 0
100000 -81250 0
106250 -81250 0
106250 -87500 0
112500 -87500 0
106250 -81250 0
112500 -81250 0
100000 -81250 0
106250 -81250 0
100000 -75000 0
106250 -75000 0
106250 -81250 0
112500 -81250 0
106250 -75000 0
112500 -75000 0
125000 -100000 0
131250 -100000 0
125000 -93750 0
131250 -93750 0
131250 -100000 0
137500 -100000 0
131250 -93750 0
137500 -93750 0
125000 -93750 0
131250 -93750 0
125000 -87500 0
131250 -87500 0
131250 -93750 0
137500 -93750 0
131250 -87500 0
137500 -87500 0
137500 -100000 0
143750 -100000 0
137500 -93750 0
143750 -93750 0
143750 -100000 0
150000 -100000 0
143750 -93750 0
150000 -93750 0
137500 -93750 0
143750 -93750 0
137500 -87500 0
143750 -87500 0
143750 -93750 0
150000 -93750 0
143750 -87500 0
150000 -87500 0
125000 -87500 0
131250 -87500 0
125000 -81250 0
131250 -81250 0
131250 -87500 0
137500 -87500 0
131250 -81250 0
137500 -81250 0
125000 -81250 0
131250 -81250 0
125000 -75000 0
131250 -75000 0
131250 -81250 0
137500 -81250 0
131250 -75000 0
137500 -75000 0
137500 -87500 0
143750 -87500 0
137500 -81250 0
143750 -81250 0
143750 -87500 0
150000 -87500 0
143750 -81250 0
150000 -81250 0
137500 -81250 0
143750 -81250 0
137500 -75000 0
143750 -75000 0
143750 -81250 0
150000 -81250 0
143750 -75000 0
150000 -75000 0
112500 -75000 0
118750 -75000 0
112500 -68750 0
118750 -68750 0
118750 -75000 0
125000 -75000 0
118750 -68750 0
125000 -68750 0
112500 -68750 0
118750 -68750 0
112500 -62500 0
118750 -62500 0
118750 -68750 0
125000 -68750 0
118750 -62500 0
125000 -62500 0
100000 -62500 0
106250 -62500 0
100000 -56250 0
106250 -56250 0
106250 -62500 0
112500 -62500 0
106250 -56250 0
112500 -56250 0
100000 -56250 0
106250 -56250 0
100000 -50000 0
106250 -50000 0
106250 -56250 0
112500 -56250 0
106250 -50000 0
112500 -50000 0
112500 -62500 0
118750 -62500 0
112500 -56250 0
118750 -56250 0
118750 -62500 0
125000 -62500 0
118750 -56250 0
125000 -56250 0
112500 -56250 0
118750 -56250 0
112500 -50000 0
118750 -50000 0
118750 -56250 0
125000 -56250 0
118750 -50000 0
125000 -50000 0
100000 -25000 0
106250 -25000 0
100000 -18750 0
106250 -18750 0
106250 -25000 0
112500 -25000 0
106250 -18750 0
112500 -18750 0
100000 -18750 0
106250 -18750 0
100000 -12500 0
106250 -12500 0
106250 -18750 0
112500 -18750 0
106250 -12500 0
112500 -12500 0
100000 -12500 0
106250 -12500 0
100000 -6250 0
106250 -6250 0
106250 -12500 0
112500 -12500 0
106250 -6250 0
112500 -6250 0
100000 -6250 0
106250 -6250 0
100000 0 0
106250 0 0
106250 -6250 0
112500 -6250 0
106250 0 0
112500 0 0
150000 -100000 0
156250 -100000 0
150000 -93750 0
156250 -93750 0
156250 -100000 0
162500 -100000 0
156250 -93750 0
162500 -93750 0
150000 -93750 0
156250 -93750 0
150000 -87500 0
156250 -87500 0
156250 -93750 0
162500 -93750 0
156250 -87500 0
162500 -87500 0
150000 -87500 0
156250 -87500 0
150000 -81250 0
156250 -81250 0
156250 -87500 0
162500 -87500 0
156250 -81250 0
162500 -81250 0
150000 -81250 0
156250 -81250 0
150000 -75000 0
156250 -75000 0
156250 -81250 0
162500 -81250 0
156250 -75000 0
162500 -75000 0
100000 -50000 0
106250 -50000 0
100000 -43750 0
106250 -43750 0
106250 -50000 0
112500 -50000 0
106250 -43750 0
112500 -43750 0
100000 -43750 0
106250 -43750 0
100000 -37500 0
106250 -37500 0
106250 -43750 0
112500 -43750 0
106250 -37500 0
112500 -37500 0
137500 -25000 0
143750 -25000 0
137500 -18750 0
143750 -18750 0
143750 -25000 0
150000 -25000 0
143750 -18750 0
150000 -18750 0
137500 -18750 0
143750 -18750 0
137500 -12500 0
143750 -12500 0
143750 -18750 0
150000 -18750 0
143750 -12500 0
150000 -12500 0
125000 -12500 0
131250 -12500 0
125000 -6250 0
131250 -6250 0
131250 -12500 0
137500 -12500 0
131250 -6250 0
137500 -6250 0
125000 -6250 0
131250 -6250 0
125000 0 0
131250 0 0
131250 -6250 0
137500 -6250 0
131250 0 0
137500 0 0
137500 -12500 0
143750 -12500 0
137500 -6250 0
143750 -6250 0
143750 -12500 0
150000 -12500 0
143750 -6250 0
150000 -6250 0
137500 -6250 0
143750 -6250 0
137500 0 0
143750 0 0
143750 -6250 0
150000 -6250 0
143750 0 0
150000 0 0
125000 -37500 0
131250 -37500 0
125000 -31250 0
131250 -31250 0
131250 -37500 0
137500 -37500 0
131250 -31250 0
137500 -31250 0
125000 -31250 0
131250 -31250 0
125000 -25000 0
131250 -25000 0
131250 -31250 0
137500 -31250 0
131250 -25000 0
137500 -25000 0
137500 -37500 0
143750 -37500 0
137500 -31250 0
143750 -31250 0
143750 -37500 0
150000 -37500 0
143750 -31250 0
150000 -31250 0
137500 -31250 0
143750 -31250 0
137500 -25000 0
143750 -25000 0
143750 -31250 0
150000 -31250 0
143750 -25000 0
150000 -25000 0
150000 -25000 0
156250 -25000 0
150000 -18750 0
156250 -18750 0
156250 -25000 0
162500 -25000 0
156250 -18750 0
162500 -18750 0
150000 -18750 0
156250 -18750 0
150000 -12500 0
156250 -12500 0
156250 -18750 0
162500 -18750 0
156250 -12500 0
162500 -12500 0
162500 -25000 0
168750 -25000 0
162500 -18750 0
168750 -18750 0
168750 -25000 0
175000 -25000 0
168750 -18750 0
175000 -18750 0
162500 -18750 0
168750 -18750 0
162500 -12500 0
168750 -12500 0
168750 -18750 0
175000 -18750 0
168750 -12500 0
175000 -12500 0
150000 -12500 0
156250 -12500 0
150000 -6250 0
156250 -6250 0
156250 -12500 0
162500 -12500 0
156250 -6250 0
162500 -6250 0
150000 -6250 0
156250 -6250 0
150000 0 0
156250 0 0
156250 -6250 0
162500 -6250 0
156250 0 0
162500 0 0
0 -100000 0
3125 -100000 0
0 -96875 0
3125 -96875 0
3125 -100000 0
6250 -100000 0
3125 -96875 0
6250 -96875 0
0 -96875 0
3125 -96875 0
0 -93750 0
3125 -93750 0
3125 -96875 0
6250 -96875 0
3125 -93750 0
[...]
POINT_DATA 18272
SCALARS history_field_xz double 1
LOOKUP_TABLE default
-4.90204e+08 -4.90204e+08 -4.90462e+08 -4.90462e+08 -4.90462e+08 -4.90462e+08 -4.91338e+08 -4.91338e+08 -4.9369e+08 -4.9369e+08 -5.01447e+08 -5.01447e+08 -5.0353e+08 -5.0353e+08 -5.06562e+08 -5.06562e+08 -4.93792e+08 -4.93792e+08 -4.98967e+08 -4.98967e+08 -4.93816e+08 -4.93816e+08 -4.97229e+08 -4.97229e+08 -4.97224e+08 -4.97224e+08 -4.97585e+08 -4.97585e+08 -4.84207e+08 -4.84207e+08 -4.88542e+08 -4.88542e+08 -4.87542e+08 -4.87542e+08 -4.90408e+08 -4.90408e+08 -4.88542e+08 -4.88542e+08 -4.93792e+08 -4.93792e+08 -4.90408e+08 -4.90408e+08 -4.93816e+08 -4.93816e+08 -4.91884e+08 -4.91884e+08 -4.92046e+08 -4.92046e+08 -4.93253e+08 -4.93253e+08 -4.93302e+08 -4.93302e+08 -4.92046e+08 -4.92046e+08 -4.92484e+08 -4.92484e+08 -4.93302e+08 -4.93302e+08 -4.9344e+08 -4.9344e+08 -4.89859e+08 -4.89859e+08 -4.9165e+08 -4.9165e+08 -4.91338e+08 -4.91338e+08 -4.92508e+08 -4.92508e+08 -4.9165e+08 -4.9165e+08 -4.93853e+08 -4.93853e+08 -4.92508e+08 -4.92508e+08 -4.93873e+08 -4.93873e+08 -4.92484e+08 -4.92484e+08 -4.93131e+08 -4.93131e+08 -4.9344e+08 -4.9344e+08 -4.93644e+08 -4.93644e+08 -4.93131e+08 -4.93131e+08 -4.93879e+08 -4.93879e+08 -4.93644e+08 -4.93644e+08 -4.93881e+08 -4.93881e+08 -4.93853e+08 -4.93853e+08 -4.9609e+08 -4.9609e+08 -4.93873e+08 -4.93873e+08 -4.95253e+08 -4.95253e+08 -4.9609e+08 -4.9609e+08 -4.98059e+08 -4.98059e+08 -4.95253e+08 -4.95253e+08 -4.96352e+08 -4.96352e+08 -4.93879e+08 -4.93879e+08 -4.94623e+08 -4.94623e+08 -4.93881e+08 -4.93881e+08 -4.94122e+08 -4.94122e+08 -4.94623e+08 -4.94623e+08 -4.95293e+08 -4.95293e+08 -4.94122e+08 -4.94122e+08 -4.94328e+08 -4.94328e+08 -4.95293e+08 -4.95293e+08 -4.95734e+08 -4.95734e+08 -4.94328e+08 -4.94328e+08 -4.94466e+08 -4.94466e+08 -4.95734e+08 -4.95734e+08 -4.95869e+08 -4.95869e+08 -4.94466e+08 -4.94466e+08 -4.94515e+08 -4.94515e+08 -4.59289e+08 -4.59289e+08 -4.66107e+08 -4.66107e+08 -5.0763e+08 -5.0763e+08 -5.49854e+08 -5.49854e+08 -4.7638e+08 -4.7638e+08 -4.9041e+08 -4.9041e+08 -4.80301e+08 -4.80301e+08 -4.91537e+08 -4.91537e+08 -4.73886e+08 -4.73886e+08 -4.82917e+08 -4.82917e+08 -4.77885e+08 -4.77885e+08 -4.8507e+08 -4.8507e+08 -4.82917e+08 -4.82917e+08 -4.9232e+08 -4.9232e+08 -4.8507e+08 -4.8507e+08 -4.92822e+08 -4.92822e+08 -4.82304e+08 -4.82304e+08 -5.08869e+08 -5.08869e+08 -5.09188e+08 -5.09188e+08 -5.42297e+08 -5.42297e+08 -4.8621e+08 -4.8621e+08 -5.0766e+08 -5.0766e+08 -4.88851e+08 -4.88851e+08 -5.0615e+08 -5.0615e+08 -4.9041e+08 -4.9041e+08 -5.048e+08 -5.048e+08 -4.91537e+08 -4.91537e+08 -5.0329e+08 -5.0329e+08 -5.048e+08 -5.048e+08 -5.19134e+08 -5.19134e+08 -4.75837e+08 -4.75837e+08 -4.76354e+08 -4.76354e+08 -4.77386e+08 -4.77386e+08 -4.79077e+08 -4.79077e+08 -4.75175e+08 -4.75175e+08 -4.80764e+08 -4.80764e+08 -4.7876e+08 -4.7876e+08 -4.83162e+08 -4.83162e+08 -5.06408e+08 -5.06408e+08 -5.10216e+08 -5.10216e+08 -5.10216e+08 -5.10216e+08 -5.1048e+08 -5.1048e+08 -5.11575e+08 -5.11575e+08 -5.12246e+08 -5.12246e+08 -5.03864e+08 -5.03864e+08 -5.08593e+08 -5.08593e+08 -5.01447e+08 -5.01447e+08 -5.06071e+08 -5.06071e+08 -5.01447e+08 -5.01447e+08 -5.03714e+08 -5.03714e+08 -5.06071e+08 -5.06071e+08 -5.09693e+08 -5.09693e+08 -5.03714e+08 -5.03714e+08 -5.06408e+08 -5.06408e+08 -4.9232e+08 -4.9232e+08 -5.01879e+08 -5.01879e+08 -4.92822e+08 -4.92822e+08 -5.00743e+08 -5.00743e+08 -5.01879e+08 -5.01879e+08 -5.11493e+08 -5.11493e+08 -5.00743e+08 -5.00743e+08 -5.08558e+08 -5.08558e+08 -5.11493e+08 -5.11493e+08 -5.20516e+08 -5.20516e+08 -5.08558e+08 -5.08558e+08 -5.15634e+08 -5.15634e+08 -5.20516e+08 -5.20516e+08 -5.28603e+08 -5.28603e+08 -5.15634e+08 -5.15634e+08 -5.21979e+08 -5.21979e+08 -4.63833e+08 -4.63833e+08 -4.66624e+08 -4.66624e+08 -4.6933e+08 -4.6933e+08 -4.71653e+08 -4.71653e+08 -4.66624e+08 -4.66624e+08 -4.70504e+08 -4.70504e+08 -4.71653e+08 -4.71653e+08 -4.74838e+08 -4.74838e+08 -4.79141e+08 -4.79141e+08 -4.79377e+08 -4.79377e+08 -4.81789e+08 -4.81789e+08 -4.82019e+08 -4.82019e+08 -4.79377e+08 -4.79377e+08 -4.80234e+08 -4.80234e+08 -4.82019e+08 -4.82019e+08 -4.82686e+08 -4.82686e+08 -4.84002e+08 -4.84002e+08 -4.84187e+08 -4.84187e+08 -4.85843e+08 -4.85843e+08 -4.85987e+08 -4.85987e+08 -4.84187e+08 -4.84187e+08 -4.84739e+08 -4.84739e+08 -4.85987e+08 -4.85987e+08 -4.8643e+08 -4.8643e+08 -4.80234e+08 -4.80234e+08 -4.81566e+08 -4.81566e+08 -4.82686e+08 -4.82686e+08 -4.83839e+08 -4.83839e+08 -4.81566e+08 -4.81566e+08 -4.84207e+08 -4.84207e+08 -4.83839e+08 -4.83839e+08 -4.84207e+08 -4.84207e+08 -4.84739e+08 -4.84739e+08 -4.85528e+08 -4.85528e+08 -4.8643e+08 -4.8643e+08 -4.87235e+08 -4.87235e+08 -4.85528e+08 -4.85528e+08 -4.87542e+08 -4.87542e+08 -4.87235e+08 -4.87235e+08 -4.87542e+08 -4.87542e+08 -4.77953e+08 -4.77953e+08 -4.81332e+08 -4.81332e+08 -4.81327e+08 -4.81327e+08 -4.83027e+08 -4.83027e+08 -4.81332e+08 -4.81332e+08 -4.85087e+08 -4.85087e+08 -4.83027e+08 -4.83027e+08 -4.87083e+08 -4.87083e+08 -4.80764e+08 -4.80764e+08 -4.86782e+08 -4.86782e+08 -4.83162e+08 -4.83162e+08 -4.88143e+08 -4.88143e+08 -4.86782e+08 -4.86782e+08 -4.93184e+08 -4.93184e+08 -4.88143e+08 -4.88143e+08 -4.93225e+08 -4.93225e+08 -4.85087e+08 -4.85087e+08 -4.89252e+08 -4.89252e+08 -4.87083e+08 -4.87083e+08 -4.89939e+08 -4.89939e+08 -4.89252e+08 -4.89252e+08 -4.9369e+08 -4.9369e+08 -4.89939e+08 -4.89939e+08 -4.9369e+08 -4.9369e+08 -5.17294e+08 -5.17294e+08 -5.21741e+08 -5.21741e+08 -5.12896e+08 -5.12896e+08 -5.16587e+08 -5.16587e+08 -5.21741e+08 -5.21741e+08 -5.24938e+08 -5.24938e+08 -5.16587e+08 -5.16587e+08 -5.19283e+08 -5.19283e+08 -5.24938e+08 -5.24938e+08 -5.26958e+08 -5.26958e+08 -5.19283e+08 -5.19283e+08 -5.20892e+08 -5.20892e+08 -5.26958e+08 -5.26958e+08 -5.27639e+08 -5.27639e+08 -5.20892e+08 -5.20892e+08 -5.21454e+08 -5.21454e+08 -4.87345e+08 -4.87345e+08 -4.87525e+08 -4.87525e+08 -4.88953e+08 -4.88953e+08 -4.8847e+08 -4.8847e+08 -4.87525e+08 -4.87525e+08 -4.87827e+08 -4.87827e+08 -4.8847e+08 -4.8847e+08 -4.89342e+08 -4.89342e+08 -4.87827e+08 -4.87827e+08 -4.88414e+08 -4.88414e+08 -4.89342e+08 -4.89342e+08 -4.89214e+08 -4.89214e+08 -4.88414e+08 -4.88414e+08 -4.89859e+08 -4.89859e+08 -4.89214e+08 -4.89214e+08 -4.89859e+08 -4.89859e+08 -4.93184e+08 -4.93184e+08 -4.99677e+08 -4.99677e+08 -4.93225e+08 -4.93225e+08 -4.99008e+08 -4.99008e+08 -4.99677e+08 -4.99677e+08 -5.06015e+08 -5.06015e+08 -4.99008e+08 -4.99008e+08 -5.03864e+08 -5.03864e+08 -5.01095e+08 -5.01095e+08 -5.01388e+08 -5.01388e+08 -4.99438e+08 -4.99438e+08 -5.00448e+08 -5.00448e+08 -5.01388e+08 -5.01388e+08 -5.03177e+08 -5.03177e+08 -5.00448e+08 -5.00448e+08 -5.01283e+08 -5.01283e+08 -5.06562e+08 -5.06562e+08 -5.08623e+08 -5.08623e+08 -5.06562e+08 -5.06562e+08 -5.05988e+08 -5.05988e+08 -5.08623e+08 -5.08623e+08 -5.08857e+08 -5.08857e+08 -5.05988e+08 -5.05988e+08 -5.06234e+08 -5.06234e+08 -5.03177e+08 -5.03177e+08 -5.03902e+08 -5.03902e+08 -5.01283e+08 -5.01283e+08 -5.01895e+08 -5.01895e+08 -5.03902e+08 -5.03902e+08 -5.03987e+08 -5.03987e+08 -5.01895e+08 -5.01895e+08 -5.02089e+08 -5.02089e+08 -4.98967e+08 -4.98967e+08 -5.0215e+08 -5.0215e+08 -4.98967e+08 -4.98967e+08 -5.00635e+08 -5.00635e+08 -5.0215e+08 -5.0215e+08 -5.0353e+08 -5.0353e+08 -5.00635e+08 -5.00635e+08 -5.0353e+08 -5.0353e+08 -4.97229e+08 -4.97229e+08 -4.99609e+08 -4.99609e+08 -4.97229e+08 -4.97229e+08 -4.98752e+08 -4.98752e+08 -4.99609e+08 -4.99609e+08 -5.01095e+08 -5.01095e+08 -4.98752e+08 -4.98752e+08 -4.99438e+08 -4.99438e+08 -4.98059e+08 -4.98059e+08 -4.99238e+08 -4.99238e+08 -4.98059e+08 -4.98059e+08 -4.981e+08 -4.981e+08 -4.99238e+08 -4.99238e+08 -4.99907e+08 -4.99907e+08 -4.981e+08 -4.981e+08 -4.98611e+08 -4.98611e+08 -4.96352e+08 -4.96352e+08 -4.97349e+08 -4.97349e+08 -4.96352e+08 -4.96352e+08 -4.96868e+08 -4.96868e+08 -4.97349e+08 -4.97349e+08 -4.97224e+08 -4.97224e+08 -4.96868e+08 -4.96868e+08 -4.97224e+08 -4.97224e+08 -4.99907e+08 -4.99907e+08 -5.0031e+08 -5.0031e+08 -4.98611e+08 -4.98611e+08 -4.9937e+08 -4.9937e+08 -5.0031e+08 -5.0031e+08 -5.00507e+08 -5.00507e+08 -4.9937e+08 -4.9937e+08 -4.98821e+08 -4.98821e+08 -1.31493e+07 -1.31493e+07 -1.31915e+07 -1.31915e+07 -3.93646e+07 -3.93646e+07 -3.94895e+07 -3.94895e+07 -1.31915e+07 -1.31915e+07 -1.33191e+07 -1.33191e+07 -3.94895e+07 -3.94895e+07 -3.98693e+07 -3.98693e+07 -6.53332e+07 -6.53332e+07 -6.55362e+07 -6.55362e+07 -9.09008e+07 -9.09008e+07 -9.11743e+07 -9.11743e+07 -6.55362e+07 -6.55362e+07 -6.61529e+07 -6.61529e+07 -9.11743e+07 -9.11743e+07 -9.20048e+07 -9.20048e+07 -1.33191e+07 -1.33191e+07 -1.35385e+07 -1.35385e+07 -3.98693e+07 -3.98693e+07 -4.05131e+07 -4.05131e+07 -1.35385e+07 -1.35385e+07 -1.37916e+07 -1.37916e+07 -4.05131e+07 -4.05131e+07 -4.14645e+07 -4.14645e+07 -6.61529e+07 -6.61529e+07 -6.72139e+07 -6.72139e+07 -9.20048e+07 -9.20048e+07 -9.34219e+07 -9.34219e+07 -6.72139e+07 -6.72139e+07 -6.87548e+07 -6.87548e+07 -9.34219e+07 -9.34219e+07 -9.553e+07 -9.553e+07 -1.15928e+08 -1.15928e+08 -1.16262e+08 -1.16262e+08 -1.40292e+08 -1.40292e+08 -1.40678e+08 -1.40678e+08 -1.16262e+08 -1.16262e+08 -1.17276e+08 -1.17276e+08 -1.40678e+08 -1.40678e+08 -1.41845e+08 -1.41845e+08 -1.63898e+08 -1.63898e+08 -1.64315e+08 -1.64315e+08 -1.86665e+08 -1.86665e+08 -1.87121e+08 -1.87121e+08 -1.64315e+08 -1.64315e+08 -1.65604e+08 -1.65604e+08 -1.87121e+08 -1.87121e+08 -1.88421e+08 -1.88421e+08 -1.17276e+08 -1.17276e+08 -1.19e+08 -1.19e+08 -1.41845e+08 -1.41845e+08 -1.43824e+08 -1.43824e+08 -1.19e+08 -1.19e+08 -1.21443e+08 -1.21443e+08 -1.43824e+08 -1.43824e+08 -1.46656e+08 -1.46656e+08 -1.65604e+08 -1.65604e+08 -1.67802e+08 -1.67802e+08 -1.88421e+08 -1.88421e+08 -1.90825e+08 -1.90825e+08 -1.67802e+08 -1.67802e+08 -1.70968e+08 -1.70968e+08 -1.90825e+08 -1.90825e+08 -1.94275e+08 -1.94275e+08 -1.37916e+07 -1.37916e+07 -1.40599e+07 -1.40599e+07 -4.14645e+07 -4.14645e+07 -4.21472e+07 -4.21472e+07 -6.87548e+07 -6.87548e+07 -7.16971e+07 -7.16971e+07 -9.553e+07 -9.553e+07 -9.80504e+07 -9.80504e+07 -9.80504e+07 -9.80504e+07 -1.01325e+08 -1.01325e+08 -1.21443e+08 -1.21443e+08 -1.24659e+08 -1.24659e+08 -1.46656e+08 -1.46656e+08 -1.50399e+08 -1.50399e+08 -1.24659e+08 -1.24659e+08 -1.28727e+08 -1.28727e+08 -1.50399e+08 -1.50399e+08 -1.55142e+08 -1.55142e+08 -1.70968e+08 -1.70968e+08 -1.75153e+08 -1.75153e+08 -1.94275e+08 -1.94275e+08 -1.9881e+08 -1.9881e+08 -1.75153e+08 -1.75153e+08 -1.80446e+08 -1.80446e+08 -1.9881e+08 -1.9881e+08 -2.04526e+08 -2.04526e+08 -1.28727e+08 -1.28727e+08 -1.33757e+08 -1.33757e+08 -1.55142e+08 -1.55142e+08 -1.61018e+08 -1.61018e+08 -1.61018e+08 -1.61018e+08 -1.68192e+08 -1.68192e+08 -1.80446e+08 -1.80446e+08 -1.86976e+08 -1.86976e+08 -2.04526e+08 -2.04526e+08 -2.11546e+08 -2.11546e+08 -1.86976e+08 -1.86976e+08 -1.9491e+08 -1.9491e+08 -2.11546e+08 -2.11546e+08 -2.20026e+08 -2.20026e+08 -2.09207e+08 -2.09207e+08 -2.0867e+08 -2.0867e+08 -2.0867e+08 -2.0867e+08 -2.10186e+08 -2.10186e+08 -2.28692e+08 -2.28692e+08 -2.31095e+08 -2.31095e+08 -2.49764e+08 -2.49764e+08 -2.51065e+08 -2.51065e+08 -2.10186e+08 -2.10186e+08 -2.12842e+08 -2.12842e+08 -2.31095e+08 -2.31095e+08 -2.33821e+08 -2.33821e+08 -2.12842e+08 -2.12842e+08 -2.16505e+08 -2.16505e+08 -2.33821e+08 -2.33821e+08 -2.37608e+08 -2.37608e+08 -2.51065e+08 -2.51065e+08 -2.53719e+08 -2.53719e+08 -2.53719e+08 -2.53719e+08 -2.57549e+08 -2.57549e+08 -4.53555e+08 -4.53555e+08 -4.70904e+08 -4.70904e+08 -3.98449e+08 -3.98449e+08 -3.98836e+08 -3.98836e+08 -4.07027e+08 -4.07027e+08 -4.07252e+08 -4.07252e+08 -4.14809e+08 -4.14809e+08 -4.15391e+08 -4.15391e+08 -2.16505e+08 -2.16505e+08 -2.21295e+08 -2.21295e+08 -2.37608e+08 -2.37608e+08 -2.4256e+08 -2.4256e+08 -2.21295e+08 -2.21295e+08 -2.27311e+08 -2.27311e+08 -2.4256e+08 -2.4256e+08 -2.48764e+08 -2.48764e+08 -2.57549e+08 -2.57549e+08 -2.62578e+08 -2.62578e+08 -2.62578e+08 -2.62578e+08 -2.68869e+08 -2.68869e+08 -2.27311e+08 -2.27311e+08 -2.34668e+08 -2.34668e+08 -2.48764e+08 -2.48764e+08 -2.56322e+08 -2.56322e+08 -2.34668e+08 -2.34668e+08 -2.43503e+08 -2.43503e+08 -2.56322e+08 -2.56322e+08 -2.65348e+08 -2.65348e+08 -2.68869e+08 -2.68869e+08 -2.76509e+08 -2.76509e+08 -2.76509e+08 -2.76509e+08 -2.85606e+08 -2.85606e+08 -4.19182e+08 -4.19182e+08 -4.23545e+08 -4.23545e+08 -1.9491e+08 -1.9491e+08 -2.0449e+08 -2.0449e+08 -2.20026e+08 -2.20026e+08 -2.30231e+08 -2.30231e+08 -2.30231e+08 -2.30231e+08 -2.41284e+08 -2.41284e+08 -2.41284e+08 -2.41284e+08 -2.55874e+08 -2.55874e+08 -2.55874e+08 -2.55874e+08 -2.73725e+08 -2.73725e+08 -2.43503e+08 -2.43503e+08 -2.53882e+08 -2.53882e+08 -2.65348e+08 -2.65348e+08 -2.76002e+08 -2.76002e+08 -2.53882e+08 -2.53882e+08 -2.66182e+08 -2.66182e+08 -2.76002e+08 -2.76002e+08 -2.88484e+08 -2.88484e+08 -2.85606e+08 -2.85606e+08 -2.96292e+08 -2.96292e+08 -2.96292e+08 -2.96292e+08 -3.08717e+08 -3.08717e+08 -2.66182e+08 -2.66182e+08 -2.80751e+08 -2.80751e+08 -2.88484e+08 -2.88484e+08 -3.02949e+08 -3.02949e+08 -2.80751e+08 -2.80751e+08 -2.97946e+08 -2.97946e+08 -3.02949e+08 -3.02949e+08 -3.19564e+08 -3.19564e+08 -3.08717e+08 -3.08717e+08 -3.23098e+08 -3.23098e+08 -3.23098e+08 -3.23098e+08 -3.38853e+08 -3.38853e+08 -2.84905e+08 -2.84905e+08 -2.85596e+08 -2.85596e+08 -3.01593e+08 -3.01593e+08 -3.02144e+08 -3.02144e+08 -2.85596e+08 -2.85596e+08 -2.87349e+08 -2.87349e+08 -3.02144e+08 -3.02144e+08 -3.0378e+08 -3.0378e+08 -4.29976e+08 -4.29976e+08 -4.39381e+08 -4.39381e+08 -4.3763e+08 -4.3763e+08 -4.50497e+08 -4.50497e+08 -2.97946e+08 -2.97946e+08 -3.16774e+08 -3.16774e+08 -3.19564e+08 -3.19564e+08 -3.39451e+08 -3.39451e+08 -3.16774e+08 -3.16774e+08 -3.39944e+08 -3.39944e+08 -3.39451e+08 -3.39451e+08 -3.61281e+08 -3.61281e+08 -3.39944e+08 -3.39944e+08 -3.65822e+08 -3.65822e+08 -3.61281e+08 -3.61281e+08 -3.86097e+08 -3.86097e+08 -3.65822e+08 -3.65822e+08 -3.9682e+08 -3.9682e+08 -4.3277e+08 -4.3277e+08 -4.43808e+08 -4.43808e+08 -4.39381e+08 -4.39381e+08 -4.49422e+08 -4.49422e+08 -4.43808e+08 -4.43808e+08 -4.55705e+08 -4.55705e+08 -4.49422e+08 -4.49422e+08 -4.60215e+08 -4.60215e+08 -4.44235e+08 -4.44235e+08 -4.59169e+08 -4.59169e+08 -4.50497e+08 -4.50497e+08 -4.64198e+08 -4.64198e+08 -4.59169e+08 -4.59169e+08 -4.7501e+08 -4.7501e+08 -4.64198e+08 -4.64198e+08 -4.78492e+08 -4.78492e+08 -5.13713e+08 -5.13713e+08 -5.62083e+08 -5.62083e+08 -5.22127e+08 -5.22127e+08 -5.6349e+08 -5.6349e+08 -4.7575e+08 -4.7575e+08 -5.02244e+08 -5.02244e+08 -4.82001e+08 -4.82001e+08 -5.04928e+08 -5.04928e+08 -5.58346e+08 -5.58346e+08 -5.87558e+08 -5.87558e+08 -5.55292e+08 -5.55292e+08 -5.80104e+08 -5.80104e+08 -5.49854e+08 -5.49854e+08 -5.73953e+08 -5.73953e+08 -5.49854e+08 -5.49854e+08 -5.67665e+08 -5.67665e+08 -5.42297e+08 -5.42297e+08 -5.62321e+08 -5.62321e+08 -5.42297e+08 -5.42297e+08 -5.56344e+08 -5.56344e+08 -5.37294e+08 -5.37294e+08 -5.51727e+08 -5.51727e+08 -5.33981e+08 -5.33981e+08 -5.46696e+08 -5.46696e+08 -5.51727e+08 -5.51727e+08 -5.65326e+08 -5.65326e+08 -5.46696e+08 -5.46696e+08 -5.58911e+08 -5.58911e+08 -5.58911e+08 -5.58911e+08 -5.70639e+08 -5.70639e+08 -5.62431e+08 -5.62431e+08 -5.64051e+08 -5.64051e+08 -3.7494e+08 -3.7494e+08 -4.11284e+08 -4.11284e+08 -4.11284e+08 -4.11284e+08 -4.53883e+08 -4.53883e+08 -5.57587e+08 -5.57587e+08 -6.16917e+08 -6.16917e+08 -5.47657e+08 -5.47657e+08 -5.4981e+08 -5.4981e+08 -5.55403e+08 -5.55403e+08 -5.57482e+08 -5.57482e+08 -5.4981e+08 -5.4981e+08 -5.51276e+08 -5.51276e+08 -5.62083e+08 -5.62083e+08 -6.1304e+08 -6.1304e+08 -5.6349e+08 -5.6349e+08 -6.06966e+08 -6.06966e+08 -5.73391e+08 -5.73391e+08 -5.73756e+08 -5.73756e+08 -5.65066e+08 -5.65066e+08 -5.65811e+08 -5.65811e+08 -6.65303e+08 -6.65303e+08 -7.17139e+08 -7.17139e+08 -6.76449e+08 -6.76449e+08 -7.11063e+08 -7.11063e+08 -6.58594e+08 -6.58594e+08 -6.89636e+08 -6.89636e+08 -5.57482e+08 -5.57482e+08 -5.58533e+08 -5.58533e+08 -5.51276e+08 -5.51276e+08 -5.52228e+08 -5.52228e+08 -5.58533e+08 -5.58533e+08 -5.58751e+08 -5.58751e+08 -5.52228e+08 -5.52228e+08 -5.52542e+08 -5.52542e+08 -6.89636e+08 -6.89636e+08 -7.17558e+08 -7.17558e+08 -6.70497e+08 -6.70497e+08 -6.94761e+08 -6.94761e+08 -6.94761e+08 -6.94761e+08 -7.17613e+08 -7.17613e+08 -6.74833e+08 -6.74833e+08 -6.94019e+08 -6.94019e+08 -7.17613e+08 -7.17613e+08 -7.34845e+08 -7.34845e+08 -6.94019e+08 -6.94019e+08 -7.10507e+08 -7.10507e+08 -7.10507e+08 -7.10507e+08 -7.25217e+08 -7.25217e+08 -6.73965e+08 -6.73965e+08 -6.88588e+08 -6.88588e+08 -6.88588e+08 -6.88588e+08 -7.0077e+08 -7.0077e+08 -6.69183e+08 -6.69183e+08 -6.79235e+08 -6.79235e+08 -7.25217e+08 -7.25217e+08 -7.34482e+08 -7.34482e+08 -7.0077e+08 -7.0077e+08 -7.10307e+08 -7.10307e+08 -6.79235e+08 -6.79235e+08 -6.8864e+08 -6.8864e+08 -7.10307e+08 -7.10307e+08 -7.18175e+08 -7.18175e+08 -6.8864e+08 -6.8864e+08 -6.94901e+08 -6.94901e+08 -7.18175e+08 -7.18175e+08 -7.21787e+08 -7.21787e+08 -6.94901e+08 -6.94901e+08 -6.98727e+08 -6.98727e+08 -7.21787e+08 -7.21787e+08 -7.23117e+08 -7.23117e+08 -6.98727e+08 -6.98727e+08 -6.98959e+08 -6.98959e+08 -3.17103e+08 -3.17103e+08 -3.17627e+08 -3.17627e+08 -3.31561e+08 -3.31561e+08 -3.32064e+08 -3.32064e+08 -3.17627e+08 -3.17627e+08 -3.19198e+08 -3.19198e+08 -3.32064e+08 -3.32064e+08 -3.33577e+08 -3.33577e+08 -2.87349e+08 -2.87349e+08 -2.90039e+08 -2.90039e+08 -3.0378e+08 -3.0378e+08 -3.06473e+08 -3.06473e+08 -2.90039e+08 -2.90039e+08 -2.93857e+08 -2.93857e+08 -3.06473e+08 -3.06473e+08 -3.10244e+08 -3.10244e+08 -3.19198e+08 -3.19198e+08 -3.21817e+08 -3.21817e+08 -3.33577e+08 -3.33577e+08 -3.36104e+08 -3.36104e+08 -3.21817e+08 -3.21817e+08 -3.25497e+08 -3.25497e+08 -3.36104e+08 -3.36104e+08 -3.39659e+08 -3.39659e+08 -2.93857e+08 -2.93857e+08 -2.98852e+08 -2.98852e+08 -3.10244e+08 -3.10244e+08 -3.15149e+08 -3.15149e+08 -2.98852e+08 -2.98852e+08 -3.05071e+08 -3.05071e+08 -3.15149e+08 -3.15149e+08 -3.21234e+08 -3.21234e+08 -3.25497e+08 -3.25497e+08 -3.30268e+08 -3.30268e+08 -3.39659e+08 -3.39659e+08 -3.44261e+08 -3.44261e+08 -3.30268e+08 -3.30268e+08 -3.36168e+08 -3.36168e+08 -3.44261e+08 -3.44261e+08 -3.49934e+08 -3.49934e+08 -6.69239e+08 -6.69239e+08 -6.74099e+08 -6.74099e+08 -3.05071e+08 -3.05071e+08 -3.12573e+08 -3.12573e+08 -3.21234e+08 -3.21234e+08 -3.28549e+08 -3.28549e+08 -3.12573e+08 -3.12573e+08 -3.21434e+08 -3.21434e+08 -3.28549e+08 -3.28549e+08 -3.37152e+08 -3.37152e+08 -6.74099e+08 -6.74099e+08 -6.78235e+08 -6.78235e+08 -3.36168e+08 -3.36168e+08 -3.43238e+08 -3.43238e+08 -3.49934e+08 -3.49934e+08 -3.56714e+08 -3.56714e+08 -3.43238e+08 -3.43238e+08 -3.5152e+08 -3.5152e+08 -3.56714e+08 -3.56714e+08 -3.64632e+08 -3.64632e+08 -3.21434e+08 -3.21434e+08 -3.31737e+08 -3.31737e+08 -3.37152e+08 -3.37152e+08 -3.47107e+08 -3.47107e+08 -3.31737e+08 -3.31737e+08 -3.43582e+08 -3.43582e+08 -3.47107e+08 -3.47107e+08 -3.5848e+08 -3.5848e+08 -3.5152e+08 -3.5152e+08 -3.61058e+08 -3.61058e+08 -3.64632e+08 -3.64632e+08 -3.73714e+08 -3.73714e+08 -3.61058e+08 -3.61058e+08 -3.71889e+08 -3.71889e+08 -3.73714e+08 -3.73714e+08 -3.83971e+08 -3.83971e+08 -3.43582e+08 -3.43582e+08 -3.57078e+08 -3.57078e+08 -3.5848e+08 -3.5848e+08 -3.71327e+08 -3.71327e+08 -3.57078e+08 -3.57078e+08 -3.72187e+08 -3.72187e+08 -3.71327e+08 -3.71327e+08 -3.85695e+08 -3.85695e+08 -3.71889e+08 -3.71889e+08 -3.84061e+08 -3.84061e+08 -3.83971e+08 -3.83971e+08 -3.95398e+08 -3.95398e+08 -3.84061e+08 -3.84061e+08 -3.97641e+08 -3.97641e+08 -3.95398e+08 -3.95398e+08 -4.0809e+08 -4.0809e+08 -3.72187e+08 -3.72187e+08 -3.89063e+08 -3.89063e+08 -3.85695e+08 -3.85695e+08 -4.01616e+08 -4.01616e+08 -3.89063e+08 -3.89063e+08 -4.07963e+08 -4.07963e+08 -4.01616e+08 -4.01616e+08 -4.19193e+08 -4.19193e+08 -3.97641e+08 -3.97641e+08 -4.12585e+08 -4.12585e+08 -4.0809e+08 -4.0809e+08 -4.22356e+08 -4.22356e+08 -4.12585e+08 -4.12585e+08 -4.28602e+08 -4.28602e+08 -4.22356e+08 -4.22356e+08 -4.37485e+08 -4.37485e+08 -4.07963e+08 -4.07963e+08 -4.2859e+08 -4.2859e+08 -4.19193e+08 -4.19193e+08 -4.38776e+08 -4.38776e+08 -4.2859e+08 -4.2859e+08 -4.51336e+08 -4.51336e+08 -4.38776e+08 -4.38776e+08 -4.59545e+08 -4.59545e+08 -3.45012e+08 -3.45012e+08 -3.45493e+08 -3.45493e+08 -3.57502e+08 -3.57502e+08 -3.57959e+08 -3.57959e+08 -3.45493e+08 -3.45493e+08 -3.46942e+08 -3.46942e+08 -3.57959e+08 -3.57959e+08 -3.59331e+08 -3.59331e+08 -3.69097e+08 -3.69097e+08 -3.695e+08 -3.695e+08 -3.79711e+08 -3.79711e+08 -3.80324e+08