# vtk DataFile Version 3.0
#This file was generated by the deal.II library on 2016/5/13 at 16:44:15
ASCII
DATASET UNSTRUCTURED_GRID

POINTS 18272 double
162500 -100000 0
175000 -100000 0
162500 -87500 0
175000 -87500 0
162500 -87500 0
175000 -87500 0
162500 -75000 0
175000 -75000 0
112500 -50000 0
125000 -50000 0
112500 -37500 0
125000 -37500 0
125000 -25000 0
137500 -25000 0
125000 -12500 0
137500 -12500 0
125000 -50000 0
137500 -50000 0
125000 -37500 0
137500 -37500 0
137500 -50000 0
150000 -50000 0
137500 -37500 0
150000 -37500 0
162500 -12500 0
175000 -12500 0
162500 0 0
175000 0 0
125000 -75000 0
137500 -75000 0
125000 -62500 0
137500 -62500 0
137500 -75000 0
150000 -75000 0
137500 -62500 0
150000 -62500 0
125000 -62500 0
137500 -62500 0
125000 -50000 0
137500 -50000 0
137500 -62500 0
150000 -62500 0
137500 -50000 0
150000 -50000 0
175000 -100000 0
187500 -100000 0
175000 -87500 0
187500 -87500 0
187500 -100000 0
200000 -100000 0
187500 -87500 0
200000 -87500 0
175000 -87500 0
187500 -87500 0
175000 -75000 0
187500 -75000 0
187500 -87500 0
200000 -87500 0
187500 -75000 0
200000 -75000 0
150000 -75000 0
162500 -75000 0
150000 -62500 0
162500 -62500 0
162500 -75000 0
175000 -75000 0
162500 -62500 0
175000 -62500 0
150000 -62500 0
162500 -62500 0
150000 -50000 0
162500 -50000 0
162500 -62500 0
175000 -62500 0
162500 -50000 0
175000 -50000 0
175000 -75000 0
187500 -75000 0
175000 -62500 0
187500 -62500 0
187500 -75000 0
200000 -75000 0
187500 -62500 0
200000 -62500 0
175000 -62500 0
187500 -62500 0
175000 -50000 0
187500 -50000 0
187500 -62500 0
200000 -62500 0
187500 -50000 0
200000 -50000 0
150000 -50000 0
162500 -50000 0
150000 -37500 0
162500 -37500 0
162500 -50000 0
175000 -50000 0
162500 -37500 0
175000 -37500 0
150000 -37500 0
162500 -37500 0
150000 -25000 0
162500 -25000 0
162500 -37500 0
175000 -37500 0
162500 -25000 0
175000 -25000 0
175000 -50000 0
187500 -50000 0
175000 -37500 0
187500 -37500 0
187500 -50000 0
200000 -50000 0
187500 -37500 0
200000 -37500 0
175000 -37500 0
187500 -37500 0
175000 -25000 0
187500 -25000 0
187500 -37500 0
200000 -37500 0
187500 -25000 0
200000 -25000 0
175000 -25000 0
187500 -25000 0
175000 -12500 0
187500 -12500 0
187500 -25000 0
200000 -25000 0
187500 -12500 0
200000 -12500 0
175000 -12500 0
187500 -12500 0
175000 0 0
187500 0 0
187500 -12500 0
200000 -12500 0
187500 0 0
200000 0 0
87500 -75000 0
93750 -75000 0
87500 -68750 0
93750 -68750 0
43750 -43750 0
50000 -43750 0
43750 -37500 0
50000 -37500 0
75000 -56250 0
81250 -56250 0
75000 -50000 0
81250 -50000 0
81250 -56250 0
87500 -56250 0
81250 -50000 0
87500 -50000 0
87500 -62500 0
93750 -62500 0
87500 -56250 0
93750 -56250 0
93750 -62500 0
100000 -62500 0
93750 -56250 0
100000 -56250 0
87500 -56250 0
93750 -56250 0
87500 -50000 0
93750 -50000 0
93750 -56250 0
100000 -56250 0
93750 -50000 0
100000 -50000 0
56250 -50000 0
62500 -50000 0
56250 -43750 0
62500 -43750 0
50000 -43750 0
56250 -43750 0
50000 -37500 0
56250 -37500 0
62500 -50000 0
68750 -50000 0
62500 -43750 0
68750 -43750 0
68750 -50000 0
75000 -50000 0
68750 -43750 0
75000 -43750 0
75000 -50000 0
81250 -50000 0
75000 -43750 0
81250 -43750 0
81250 -50000 0
87500 -50000 0
81250 -43750 0
87500 -43750 0
75000 -43750 0
81250 -43750 0
75000 -37500 0
81250 -37500 0
118750 -100000 0
125000 -100000 0
118750 -93750 0
125000 -93750 0
118750 -87500 0
125000 -87500 0
118750 -81250 0
125000 -81250 0
100000 -68750 0
106250 -68750 0
100000 -62500 0
106250 -62500 0
106250 -68750 0
112500 -68750 0
106250 -62500 0
112500 -62500 0
118750 -25000 0
125000 -25000 0
118750 -18750 0
125000 -18750 0
118750 -18750 0
125000 -18750 0
118750 -12500 0
125000 -12500 0
118750 -6250 0
125000 -6250 0
118750 0 0
125000 0 0
106250 -37500 0
112500 -37500 0
106250 -31250 0
112500 -31250 0
112500 -37500 0
118750 -37500 0
112500 -31250 0
118750 -31250 0
118750 -37500 0
125000 -37500 0
118750 -31250 0
125000 -31250 0
112500 -31250 0
118750 -31250 0
112500 -25000 0
118750 -25000 0
118750 -31250 0
125000 -31250 0
118750 -25000 0
125000 -25000 0
87500 -50000 0
93750 -50000 0
87500 -43750 0
93750 -43750 0
93750 -50000 0
100000 -50000 0
93750 -43750 0
100000 -43750 0
87500 -43750 0
93750 -43750 0
87500 -37500 0
93750 -37500 0
93750 -43750 0
100000 -43750 0
93750 -37500 0
100000 -37500 0
87500 -37500 0
93750 -37500 0
87500 -31250 0
93750 -31250 0
93750 -37500 0
100000 -37500 0
93750 -31250 0
100000 -31250 0
87500 -31250 0
93750 -31250 0
87500 -25000 0
93750 -25000 0
93750 -31250 0
100000 -31250 0
93750 -25000 0
100000 -25000 0
100000 -87500 0
106250 -87500 0
100000 -81250 0
106250 -81250 0
106250 -87500 0
112500 -87500 0
106250 -81250 0
112500 -81250 0
100000 -81250 0
106250 -81250 0
100000 -75000 0
106250 -75000 0
106250 -81250 0
112500 -81250 0
106250 -75000 0
112500 -75000 0
125000 -100000 0
131250 -100000 0
125000 -93750 0
131250 -93750 0
131250 -100000 0
137500 -100000 0
131250 -93750 0
137500 -93750 0
125000 -93750 0
131250 -93750 0
125000 -87500 0
131250 -87500 0
131250 -93750 0
137500 -93750 0
131250 -87500 0
137500 -87500 0
137500 -100000 0
143750 -100000 0
137500 -93750 0
143750 -93750 0
143750 -100000 0
150000 -100000 0
143750 -93750 0
150000 -93750 0
137500 -93750 0
143750 -93750 0
137500 -87500 0
143750 -87500 0
143750 -93750 0
150000 -93750 0
143750 -87500 0
150000 -87500 0
125000 -87500 0
131250 -87500 0
125000 -81250 0
131250 -81250 0
131250 -87500 0
137500 -87500 0
131250 -81250 0
137500 -81250 0
125000 -81250 0
131250 -81250 0
125000 -75000 0
131250 -75000 0
131250 -81250 0
137500 -81250 0
131250 -75000 0
137500 -75000 0
137500 -87500 0
143750 -87500 0
137500 -81250 0
143750 -81250 0
143750 -87500 0
150000 -87500 0
143750 -81250 0
150000 -81250 0
137500 -81250 0
143750 -81250 0
137500 -75000 0
143750 -75000 0
143750 -81250 0
150000 -81250 0
143750 -75000 0
150000 -75000 0
112500 -75000 0
118750 -75000 0
112500 -68750 0
118750 -68750 0
118750 -75000 0
125000 -75000 0
118750 -68750 0
125000 -68750 0
112500 -68750 0
118750 -68750 0
112500 -62500 0
118750 -62500 0
118750 -68750 0
125000 -68750 0
118750 -62500 0
125000 -62500 0
100000 -62500 0
106250 -62500 0
100000 -56250 0
106250 -56250 0
106250 -62500 0
112500 -62500 0
106250 -56250 0
112500 -56250 0
100000 -56250 0
106250 -56250 0
100000 -50000 0
106250 -50000 0
106250 -56250 0
112500 -56250 0
106250 -50000 0
112500 -50000 0
112500 -62500 0
118750 -62500 0
112500 -56250 0
118750 -56250 0
118750 -62500 0
125000 -62500 0
118750 -56250 0
125000 -56250 0
112500 -56250 0
118750 -56250 0
112500 -50000 0
118750 -50000 0
118750 -56250 0
125000 -56250 0
118750 -50000 0
125000 -50000 0
100000 -25000 0
106250 -25000 0
100000 -18750 0
106250 -18750 0
106250 -25000 0
112500 -25000 0
106250 -18750 0
112500 -18750 0
100000 -18750 0
106250 -18750 0
100000 -12500 0
106250 -12500 0
106250 -18750 0
112500 -18750 0
106250 -12500 0
112500 -12500 0
100000 -12500 0
106250 -12500 0
100000 -6250 0
106250 -6250 0
106250 -12500 0
112500 -12500 0
106250 -6250 0
112500 -6250 0
100000 -6250 0
106250 -6250 0
100000 0 0
106250 0 0
106250 -6250 0
112500 -6250 0
106250 0 0
112500 0 0
150000 -100000 0
156250 -100000 0
150000 -93750 0
156250 -93750 0
156250 -100000 0
162500 -100000 0
156250 -93750 0
162500 -93750 0
150000 -93750 0
156250 -93750 0
150000 -87500 0
156250 -87500 0
156250 -93750 0
162500 -93750 0
156250 -87500 0
162500 -87500 0
150000 -87500 0
156250 -87500 0
150000 -81250 0
156250 -81250 0
156250 -87500 0
162500 -87500 0
156250 -81250 0
162500 -81250 0
150000 -81250 0
156250 -81250 0
150000 -75000 0
156250 -75000 0
156250 -81250 0
162500 -81250 0
156250 -75000 0
162500 -75000 0
100000 -50000 0
106250 -50000 0
100000 -43750 0
106250 -43750 0
106250 -50000 0
112500 -50000 0
106250 -43750 0
112500 -43750 0
100000 -43750 0
106250 -43750 0
100000 -37500 0
106250 -37500 0
106250 -43750 0
112500 -43750 0
106250 -37500 0
112500 -37500 0
137500 -25000 0
143750 -25000 0
137500 -18750 0
143750 -18750 0
143750 -25000 0
150000 -25000 0
143750 -18750 0
150000 -18750 0
137500 -18750 0
143750 -18750 0
137500 -12500 0
143750 -12500 0
143750 -18750 0
150000 -18750 0
143750 -12500 0
150000 -12500 0
125000 -12500 0
131250 -12500 0
125000 -6250 0
131250 -6250 0
131250 -12500 0
137500 -12500 0
131250 -6250 0
137500 -6250 0
125000 -6250 0
131250 -6250 0
125000 0 0
131250 0 0
131250 -6250 0
137500 -6250 0
131250 0 0
137500 0 0
137500 -12500 0
143750 -12500 0
137500 -6250 0
143750 -6250 0
143750 -12500 0
150000 -12500 0
143750 -6250 0
150000 -6250 0
137500 -6250 0
143750 -6250 0
137500 0 0
143750 0 0
143750 -6250 0
150000 -6250 0
143750 0 0
150000 0 0
125000 -37500 0
131250 -37500 0
125000 -31250 0
131250 -31250 0
131250 -37500 0
137500 -37500 0
131250 -31250 0
137500 -31250 0
125000 -31250 0
131250 -31250 0
125000 -25000 0
131250 -25000 0
131250 -31250 0
137500 -31250 0
131250 -25000 0
137500 -25000 0
137500 -37500 0
143750 -37500 0
137500 -31250 0
143750 -31250 0
143750 -37500 0
150000 -37500 0
143750 -31250 0
150000 -31250 0
137500 -31250 0
143750 -31250 0
137500 -25000 0
143750 -25000 0
143750 -31250 0
150000 -31250 0
143750 -25000 0
150000 -25000 0
150000 -25000 0
156250 -25000 0
150000 -18750 0
156250 -18750 0
156250 -25000 0
162500 -25000 0
156250 -18750 0
162500 -18750 0
150000 -18750 0
156250 -18750 0
150000 -12500 0
156250 -12500 0
156250 -18750 0
162500 -18750 0
156250 -12500 0
162500 -12500 0
162500 -25000 0
168750 -25000 0
162500 -18750 0
168750 -18750 0
168750 -25000 0
175000 -25000 0
168750 -18750 0
175000 -18750 0
162500 -18750 0
168750 -18750 0
162500 -12500 0
168750 -12500 0
168750 -18750 0
175000 -18750 0
168750 -12500 0
175000 -12500 0
150000 -12500 0
156250 -12500 0
150000 -6250 0
156250 -6250 0
156250 -12500 0
162500 -12500 0
156250 -6250 0
162500 -6250 0
150000 -6250 0
156250 -6250 0
150000 0 0
156250 0 0
156250 -6250 0
162500 -6250 0
156250 0 0
162500 0 0
0 -100000 0
3125 -100000 0
0 -96875 0
3125 -96875 0
3125 -100000 0
6250 -100000 0
3125 -96875 0
6250 -96875 0
0 -96875 0
3125 -96875 0
0 -93750 0
3125 -93750 0
3125 -96875 0
6250 -96875 0
3125 -93750 0
[...]
POINT_DATA 18272
SCALARS velocity double 1
LOOKUP_TABLE default
-551.976 -582.601 -551.909 -582.55 -551.909 -582.55 -551.712 -582.408 -427.696 -458.539 -426.2 -457.528 -456.647 -488.105 -456.063 -487.71 -458.539 -489.389 -457.528 -488.701 -489.389 -520.239 -488.701 -519.765 -550.277 -581.341 -550.206 -581.292 -460.399 -490.65 -459.552 -490.074 -490.65 -521.109 -490.074 -520.711 -459.552 -490.074 -458.539 -489.389 -490.074 -520.711 -489.389 -520.239 -582.601 -613.331 -582.55 -613.291 -613.331 -644.147 -613.291 -644.109 -582.55 -613.291 -582.408 -613.176 -613.291 -644.109 -613.176 -644.003 -521.109 -551.712 -520.711 -551.427 -551.712 -582.408 -551.427 -582.196 -520.711 -551.427 -520.239 -551.093 -551.427 -582.196 -551.093 -581.947 -582.408 -613.176 -582.196 -613.004 -613.176 -644.003 -613.004 -643.844 -582.196 -613.004 -581.947 -612.802 -613.004 -643.844 -612.802 -643.656 -520.239 -551.093 -519.765 -550.757 -551.093 -581.947 -550.757 -581.698 -519.765 -550.757 -519.359 -550.475 -550.757 -581.698 -550.475 -581.484 -581.947 -612.802 -581.698 -612.599 -612.802 -643.656 -612.599 -643.469 -581.698 -612.599 -581.484 -612.427 -612.599 -643.469 -612.427 -643.31 -581.484 -612.427 -581.341 -612.312 -612.427 -643.31 -612.312 -643.203 -581.341 -612.312 -581.292 -612.271 -612.312 -643.203 -612.271 -643.166 -372.013 -386.36 -370.775 -385.335 -253.617 -269.474 -246.743 -263.919 -337.884 -352.765 -335.438 -350.757 -352.765 -367.768 -350.757 -366.111 -369.344 -384.147 -367.768 -382.853 -384.147 -399.074 -382.853 -398.005 -367.768 -382.853 -366.111 -381.49 -382.853 -398.005 -381.49 -396.884 -289.914 -304.98 -285.379 -301.275 -269.474 -285.379 -263.919 -280.859 -304.98 -320.167 -301.275 -317.133 -320.167 -335.438 -317.133 -332.944 -335.438 -350.757 -332.944 -348.712 -350.757 -366.111 -348.712 -364.433 -332.944 -348.712 -330.496 -346.712 -446.303 -461.167 -446.239 -461.119 -446.058 -460.97 -445.765 -460.73 -400.054 -414.897 -399.074 -414.092 -414.897 -429.852 -414.092 -429.185 -440.829 -456.647 -440.418 -456.355 -440.418 -456.355 -440.117 -456.063 -439.923 -455.903 -439.853 -455.854 -410.461 -426.2 -409.622 -425.509 -426.2 -441.864 -425.509 -441.317 -441.864 -457.528 -441.317 -457.052 -425.509 -441.317 -424.907 -440.829 -441.317 -457.052 -440.829 -456.647 -366.111 -381.49 -364.433 -380.111 -381.49 -396.884 -380.111 -395.752 -364.433 -380.111 -362.791 -378.769 -380.111 -395.752 -378.769 -394.655 -362.791 -378.769 -361.261 -377.52 -378.769 -394.655 -377.52 -393.627 -361.261 -377.52 -359.91 -376.422 -377.52 -393.627 -376.422 -392.727 -402.112 -416.601 -401.603 -416.179 -416.601 -431.261 -416.179 -430.912 -401.603 -416.179 -400.904 -415.602 -416.179 -430.912 -415.602 -430.434 -461.167 -476.134 -461.119 -476.093 -476.134 -491.184 -476.093 -491.15 -461.119 -476.093 -460.97 -475.971 -476.093 -491.15 -475.971 -491.049 -491.184 -506.303 -491.15 -506.274 -506.303 -521.479 -506.274 -521.455 -491.15 -506.274 -491.049 -506.191 -506.274 -521.455 -506.191 -521.385 -460.97 -475.971 -460.73 -475.772 -475.971 -491.049 -475.772 -490.886 -460.73 -475.772 -460.399 -475.525 -475.772 -490.886 -475.525 -490.65 -491.049 -506.191 -490.886 -506.053 -506.191 -521.385 -506.053 -521.272 -490.886 -506.053 -490.65 -505.879 -506.053 -521.272 -505.879 -521.109 -430.434 -445.364 -429.852 -444.887 -445.364 -460.399 -444.887 -459.976 -429.852 -444.887 -429.185 -444.337 -444.887 -459.976 -444.337 -459.552 -399.074 -414.092 -398.005 -413.211 -414.092 -429.185 -413.211 -428.459 -398.005 -413.211 -396.884 -412.29 -413.211 -428.459 -412.29 -427.696 -429.185 -444.337 -428.459 -443.742 -444.337 -459.552 -443.742 -459.046 -428.459 -443.742 -427.696 -443.118 -443.742 -459.046 -443.118 -458.539 -392.727 -408.886 -391.972 -408.27 -408.886 -424.907 -408.27 -424.407 -391.972 -408.27 -391.415 -407.813 -408.27 -424.407 -407.813 -424.034 -391.415 -407.813 -391.07 -407.531 -407.813 -424.034 -407.531 -423.802 -391.07 -407.531 -390.953 -407.435 -407.531 -423.802 -407.435 -423.724 -521.479 -536.702 -521.455 -536.684 -536.702 -551.976 -536.684 -551.943 -521.455 -536.684 -521.385 -536.624 -536.684 -551.943 -536.624 -551.909 -521.385 -536.624 -521.272 -536.529 -536.624 -551.909 -536.529 -551.811 -521.272 -536.529 -521.109 -536.41 -536.529 -551.811 -536.41 -551.712 -396.884 -412.29 -395.752 -411.361 -412.29 -427.696 -411.361 -426.948 -395.752 -411.361 -394.655 -410.461 -411.361 -426.948 -410.461 -426.2 -488.105 -503.758 -487.908 -503.57 -503.758 -519.359 -503.57 -519.202 -487.908 -503.57 -487.71 -503.428 -503.57 -519.202 -503.428 -519.087 -456.063 -471.887 -455.903 -471.791 -471.887 -487.71 -471.791 -487.596 -455.903 -471.791 -455.854 -471.75 -471.791 -487.596 -471.75 -487.563 -487.71 -503.428 -487.596 -503.337 -503.428 -519.087 -503.337 -519.015 -487.596 -503.337 -487.563 -503.306 -503.337 -519.015 -503.306 -518.99 -457.528 -473.114 -457.052 -472.737 -473.114 -488.701 -472.737 -488.376 -457.052 -472.737 -456.647 -472.376 -472.737 -488.376 -472.376 -488.105 -488.701 -504.233 -488.376 -503.982 -504.233 -519.765 -503.982 -519.562 -488.376 -503.982 -488.105 -503.758 -503.982 -519.562 -503.758 -519.359 -519.359 -534.917 -519.202 -534.797 -534.917 -550.475 -534.797 -550.356 -519.202 -534.797 -519.087 -534.702 -534.797 -550.356 -534.702 -550.277 -550.475 -565.979 -550.356 -565.892 -565.979 -581.484 -565.892 -581.412 -550.356 -565.892 -550.277 -565.809 -565.892 -581.412 -565.809 -581.341 -519.087 -534.702 -519.015 -534.643 -534.702 -550.277 -534.643 -550.242 -519.015 -534.643 -518.99 -534.624 -534.643 -550.242 -534.624 -550.206 -252.714 -252.919 -252.508 -252.714 -252.919 -253.534 -252.714 -253.331 -252.508 -252.714 -251.889 -252.097 -252.714 -253.331 -252.097 -252.72 -253.534 -254.554 -253.331 -254.354 -254.554 -255.974 -254.354 -255.778 -253.331 -254.354 -252.72 -253.753 -254.354 -255.778 -253.753 -255.19 -251.889 -252.097 -250.853 -251.065 -252.097 -252.72 -251.065 -251.698 -250.853 -251.065 -249.394 -249.61 -251.065 -251.698 -249.61 -250.257 -252.72 -253.753 -251.698 -252.747 -253.753 -255.19 -252.747 -254.206 -251.698 -252.747 -250.257 -251.331 -252.747 -254.206 -251.331 -252.823 -255.974 -257.785 -255.778 -257.594 -257.785 -259.976 -257.594 -259.791 -255.778 -257.594 -255.19 -257.022 -257.594 -259.791 -257.022 -259.237 -259.976 -262.536 -259.791 -262.358 -262.536 -265.451 -262.358 -265.28 -259.791 -262.358 -259.237 -261.824 -262.358 -265.28 -261.824 -264.767 -255.19 -257.022 -254.206 -256.065 -257.022 -259.237 -256.065 -258.311 -254.206 -256.065 -252.823 -254.72 -256.065 -258.311 -254.72 -257.011 -259.237 -261.824 -258.311 -260.932 -261.824 -264.767 -260.932 -263.913 -258.311 -260.932 -257.011 -259.681 -260.932 -263.913 -259.681 -262.715 -249.394 -249.61 -247.504 -247.724 -249.61 -250.257 -247.724 -248.382 -250.257 -251.331 -248.382 -249.502 -251.331 -252.823 -249.502 -251.033 -249.502 -251.033 -247.245 -248.827 -252.823 -254.72 -251.033 -252.98 -254.72 -257.011 -252.98 -255.329 -251.033 -252.98 -248.827 -250.838 -252.98 -255.329 -250.838 -253.261 -257.011 -259.681 -255.329 -258.065 -259.681 -262.715 -258.065 -261.17 -255.329 -258.065 -253.261 -256.079 -258.065 -261.17 -256.079 -259.274 -248.827 -250.838 -246.193 -248.282 -250.838 -253.261 -248.282 -250.797 -248.282 -250.797 -245.3 -247.927 -253.261 -256.079 -250.797 -253.717 -256.079 -259.274 -253.717 -257.021 -250.797 -253.717 -247.927 -250.971 -253.717 -257.021 -250.971 -254.408 -265.451 -268.719 -265.28 -268.539 -265.28 -268.539 -264.767 -268.049 -268.539 -272.111 -268.049 -271.659 -272.111 -276.012 -271.659 -275.58 -264.767 -268.049 -263.913 -267.237 -268.049 -271.659 -267.237 -270.889 -263.913 -267.237 -262.715 -266.097 -267.237 -270.889 -266.097 -269.808 -271.659 -275.58 -270.889 -274.852 -270.889 -274.852 -269.808 -273.83 -270.627 -277.711 -267.667 -275.021 -328.392 -334.616 -328.32 -334.549 -334.616 -340.973 -334.549 -340.91 -340.973 -347.451 -340.91 -347.398 -262.715 -266.097 -261.17 -264.626 -266.097 -269.808 -264.626 -268.415 -261.17 -264.626 -259.274 -262.824 -264.626 -268.415 -262.824 -266.709 -269.808 -273.83 -268.415 -272.516 -268.415 -272.516 -266.709 -270.909 -259.274 -262.824 -257.021 -260.687 -262.824 -266.709 -260.687 -264.69 -257.021 -260.687 -254.408 -258.211 -260.687 -264.69 -258.211 -262.355 -266.709 -270.909 -264.69 -269.009 -264.69 -269.009 -262.355 -266.816 -332.316 -338.863 -331.506 -338.122 -247.927 -250.971 -244.639 -247.832 -250.971 -254.408 -247.832 -251.428 -247.832 -251.428 -244.305 -248.074 -244.305 -248.074 -240.341 -244.337 -240.341 -244.337 -235.94 -240.215 -254.408 -258.211 -251.428 -255.394 -258.211 -262.355 -255.394 -259.704 -251.428 -255.394 -248.074 -252.231 -255.394 -259.704 -252.231 -256.737 -262.355 -266.816 -259.704 -264.332 -259.704 -264.332 -256.737 -261.559 -248.074 -252.231 -244.337 -248.722 -252.231 -256.737 -248.722 -253.454 -244.337 -248.722 -240.215 -244.869 -248.722 -253.454 -244.869 -249.86 -256.737 -261.559 -253.454 -258.5 -253.454 -258.5 -249.86 -255.152 -280.351 -284.8 -280.21 -284.671 -284.8 -289.511 -284.671 -289.39 -280.21 -284.671 -279.795 -284.283 -284.671 -289.39 -284.283 -289.027 -306.786 -313.502 -305.086 -311.948 -289.52 -296.356 -287.248 -294.284 -240.215 -244.869 -235.722 -240.669 -244.869 -249.86 -240.669 -245.971 -235.722 -240.669 -230.819 -236.128 -240.669 -245.971 -236.128 -241.771 -230.819 -236.128 -225.538 -231.252 -236.128 -241.771 -231.252 -237.282 -225.538 -231.252 -219.867 -226.064 -298.326 -305.086 -296.356 -303.287 -305.086 -311.948 -303.287 -310.307 -296.356 -303.287 -294.284 -301.402 -303.287 -310.307 -301.402 -308.59 -280.31 -287.248 -277.711 -284.883 -287.248 -294.284 -284.883 -292.133 -277.711 -284.883 -275.021 -282.44 -284.883 -292.133 -282.44 -289.914 -200.968 -208.992 -194.215 -202.994 -208.992 -217.147 -202.994 -211.795 -242.082 -249.513 -237.886 -245.731 -249.513 -257.041 -245.731 -253.617 -229.35 -238.07 -225.117 -234.294 -238.07 -246.743 -234.294 -243.354 -246.743 -255.331 -243.354 -252.318 -255.331 -263.919 -252.318 -261.184 -263.919 -272.389 -261.184 -269.967 -272.389 -280.859 -269.967 -278.656 -280.859 -289.251 -278.656 -287.273 -289.251 -297.591 -287.273 -295.812 -278.656 -287.273 -276.544 -285.373 -287.273 -295.812 -285.373 -294.102 -285.373 -294.102 -283.569 -292.482 -331.597 -340.382 -331.299 -340.109 -214.011 -219.867 -207.447 -213.87 -207.447 -213.87 -200.453 -207.542 -185.506 -194.215 -177.766 -187.401 -349.392 -357.945 -349.056 -357.644 -340.382 -349.056 -340.109 -348.816 -349.056 -357.644 -348.816 -357.426 -194.215 -202.994 -187.401 -196.976 -202.994 -211.795 -196.976 -206.456 -322.165 -331.12 -322.095 -331.056 -331.12 -339.946 -331.056 -339.893 -180.647 -191.038 -174.125 -185.325 -196.177 -206.742 -191.442 -202.548 -206.742 -217.028 -202.548 -213.319 -340.109 -348.816 -339.946 -348.669 -348.816 -357.426 -348.669 -357.294 -339.946 -348.669 -339.893 -348.62 -348.669 -357.294 -348.62 -357.25 -202.548 -213.319 -198.694 -209.901 -213.319 -223.791 -209.901 -220.753 -209.901 -220.753 -206.822 -218.03 -220.753 -231.292 -218.03 -228.869 -206.822 -218.03 -204.183 -215.66 -218.03 -228.869 -215.66 -226.757 -215.66 -226.757 -213.664 -224.991 -228.869 -239.396 -226.757 -237.512 -226.757 -237.512 -224.991 -235.936 -237.512 -247.964 -235.936 -246.545 -213.664 -224.991 -212.12 -223.592 -224.991 -235.936 -223.592 -234.686 -235.936 -246.545 -234.686 -245.441 -223.592 -234.686 -222.565 -233.782 -234.686 -245.441 -233.782 -244.635 -222.565 -233.782 -221.959 -233.232 -233.782 -244.635 -233.232 -244.145 -221.959 -233.232 -221.755 -233.049 -233.232 -244.145 -233.049 -243.966 -289.511 -294.463 -289.39 -294.351 -294.463 -299.642 -294.351 -299.537 -289.39 -294.351 -289.027 -294.013 -294.351 -299.537 -294.013 -299.223 -279.795 -284.283 -279.107 -283.637 -284.283 -289.027 -283.637 -288.424 -279.107 -283.637 -278.146 -282.735 -283.637 -288.424 -282.735 -287.581 -289.027 -294.013 -288.424 -293.45 -294.013 -299.223 -293.45 -298.7 -288.424 -293.45 -287.581 -292.665 -293.45 -298.7 -292.665 -297.97 -278.146 -282.735 -276.91 -281.578 -282.735 -287.581 -281.578 -286.5 -276.91 -281.578 -275.401 -280.166 -281.578 -286.5 -280.166 -285.183 -287.581 -292.665 -286.5 -291.658 -292.665 -297.97 -291.658 -297.035 -286.5 -291.658 -285.183 -290.434 -291.658 -297.035 -290.434 -295.899 -245.441 -255.894 -244.635 -255.164 -275.401 -280.166 -273.62 -278.502 -280.166 -285.183 -278.502 -283.633 -273.62 -278.502 -271.568 -276.589 -278.502 -283.633 -276.589 -281.855 -244.635 -255.164 -244.145 -254.738 -285.183 -290.434 -283.633 -288.994 -290.434 -295.899 -288.994 -294.566 -283.633 -288.994 -281.855 -287.345 -288.994 -294.566 -287.345 -293.04 -271.568 -276.589 -269.249 -274.431 -276.589 -281.855 -274.431 -279.852 -269.249 -274.431 -266.667 -272.033 -274.431 -279.852 -272.033 -277.632 -281.855 -287.345 -279.852 -285.491 -287.345 -293.04 -285.491 -291.328 -279.852 -285.491 -277.632 -283.44 -285.491 -291.328 -283.44 -289.437 -266.667 -272.033 -263.827 -269.404 -272.033 -277.632 -269.404 -275.203 -263.827 -269.404 -260.739 -266.552 -269.404 -275.203 -266.552 -272.576 -277.632 -283.44 -275.203 -281.202 -283.44 -289.437 -281.202 -287.377 -275.203 -281.202 -272.576 -278.787 -281.202 -287.377 -278.787 -285.161 -260.739 -266.552 -257.414 -263.491 -266.552 -272.576 -263.491 -269.764 -257.414 -263.491 -253.864 -260.236 -263.491 -269.764 -260.236 -266.783 -272.576 -278.787 -269.764 -276.208 -278.787 -285.161 -276.208 -282.804 -269.764 -276.208 -266.783 -273.477 -276.208 -282.804 -273.477 -280.31 -253.864 -260.236 -250.109 -256.803 -260.236 -266.783 -256.803 -263.656 -250.109 -256.803 -246.168 -253.217 -256.803 -263.656 -253.217 -260.394 -299.642 -305.031 -299.537 -304.933 -305.031 -310.614 -304.933 -310.524 -299.537 -304.933 -299.223 -304.641 -304.933 -310.524 -304.641 -310.254 -310.614 -316.379 -310.524 -316.295 -316.379 -322.31 -316.295 -322.235 -310.524 -316.295 -310.254 -316.045 -316.295 -322.235 -316.045 -322 -299.223 -304.641 -298.7 -304.156 -304.641 -310.254 -304.156 -309.805 -298.7 -304.156 -297.97 -303.48 -304.156 -309.805 -303.48 -309.179 -310.254 -316.045 -309.805 -315.629 -316.045 -322 -315.629 -321.617 -309.805 -315.629 -309.179 -315.052 -315.629 -321.617 -315.052 -321.085 -322 -328.104 -321.617 -327.756 -328.104 -334.358 -327.756 -334.036 -321.617 -327.756 -321.085 -327.261 -327.756 -334.036 -327.261 -333.583 -297.97 -303.48 -297.035 -302.614 -303.48 -309.179 -302.614 -308.379 -297.035 -302.614 -295.899 -301.562 -302.614 -308.379 -301.562 -307.407 -309.179 -315.052 -308.379 -314.315 -315.052 -321.085 -314.315 -320.411 -308.379 -314.315 -307.407 -313.42 -314.315 -320.411 -313.42 -319.586 -295.899 -301.562 -294.566 -300.329 -301.562 -307.407 -300.329 -306.269 -294.566 -300.329 -293.04 -298.921 -300.329 -306.269 -298.921 -304.971 -307.407 -313.42 -306.269 -312.371 -313.42 -319.586 -312.371 -318.623 -306.269 -312.371 -304.971 -311.17 -312.371 -318.623 -311.17 -317.521 -386.36 -393.606 -385.848 -393.16 -393.606 -400.904 -393.16 -400.499 -385.848 -393.16 -385.335 -392.672 -393.16 -400.499 -392.672 -400.054 -370.775 -378.055 -370.084 -377.406 -378.055 -385.335 -377.406 -384.765 -370.084 -377.406 -369.344 -376.745 -377.406 -384.765 -376.745 -384.147 -385.335 -392.672 -384.765 -392.153 -392.672 -400.054 -392.153 -399.564 -384.765 -392.153 -384.147 -391.61 -392.153 -399.564 -391.61 -399.074 -347.451 -354.041 -347.398 -353.991 -354.041 -360.729 -353.991 -360.683 -347.398 -353.991 -347.239 -353.842 -353.991 -360.683 -353.842 -360.546 -360.729 -367.509 -360.683 -367.467 -367.509 -374.373 -367.467 -374.334 -360.683 -367.467 -360.546 -367.341 -367.467 -374.334 -367.341 -374.219 -347.239 -353.842 -346.966 -353.593 -353.842 -360.546 -353.593 -360.318 -346.966 -353.593 -346.587 -353.247 -353.593 -360.318 -353.247 -360.001 -360.546 -367.341 -360.318 -367.133 -367.341 -374.219 -367.133 -374.029 -360.318 -367.133 -360.001 -366.843 -367.133 -374.029 -366.843 -373.764 -374.373 -381.314 -374.334 -381.279 -381.314 -388.325 -381.279 -388.293 -374.334 -381.279 -374.219 -381.173 -381.279 -388.293 -381.173 -388.197 -388.325 -395.4 -388.293 -395.371 -395.4 -402.534 -395.371 -402.508 -388.293 -395.371 -388.197 -395.284 -395.371 -402.508 -395.284 -402.428 -374.219 -381.173 -374.029 -380.999 -381.173 -388.197 -380.999 -388.037 -374.029 -380.999 -373.764 -380.757 -380.999 -388.037 -380.757 -387.816 -388.197 -395.284 -388.037 -395.138 -395.284 -402.428 -395.138 -402.298 -388.037 -395.138 -387.816 -394.934 -395.138 -402.298 -394.934 -402.112 -346.587 -353.247 -346.105 -352.805 -353.247 -360.001 -352.805 -359.598 -346.105 -352.805 -345.521 -352.271 -352.805 -359.598 -352.271 -359.11 -360.001 -366.843 -359.598 -366.475 -366.843 -373.764 -366.475 -373.428 -359.598 -366.475 -359.11 -366.03 -366.475 -373.428 -366.03 -373.022 -345.521 -352.271 -344.842 -351.649 -352.271 -359.11 -351.649 -358.541 -344.842 -351.649 -344.067 -350.944 -351.649 -358.541 -350.944 -357.897 -359.11 -366.03 -358.541 -365.511 -366.03 -373.022 -365.511 -372.552 -358.541 -365.511 -357.897 -364.92 -365.511 -372.552 -364.92 -372.013 -293.04 -298.921 -291.328 -297.344 -298.921 -304.971 -297.344 -303.525 -291.328 -297.344 -289.437 -295.605 -297.344 -303.525 -295.605 -301.925 -289.437 -295.605 -287.377 -293.712 -295.605 -301.925 -293.712 -300.19 -287.377 -293.712 -285.161 -291.675 -293.712 -300.19 -291.675 -298.326 -373.764 -380.757 -373.428 -380.45 -380.757 -387.816 -380.45 -387.535 -373.428 -380.45 -373.022 -380.081 -380.45 -387.535 -380.081 -387.198 -387.816 -394.934 -387.535 -394.678 -394.934 -402.112 -394.678 -401.857 -387.535 -394.678 -387.198 -394.368 -394.678 -401.857 -394.368 -401.603 -373.022 -380.081 -372.552 -379.653 -380.081 -387.198 -379.653 -386.808 -372.552 -379.653 -372.013 -379.186 -379.653 -386.808 -379.186 -386.36 -387.198 -394.368 -386.808 -394.013 -394.368 -401.603 -394.013 -401.254 -386.808 -394.013 -386.36 -393.606 -394.013 -401.254 -393.606 -400.904 -294.284 -301.402 -292.133 -299.445 -301.402 -308.59 -299.445 -306.812 -292.133 -299.445 -289.914 -297.447 -299.445 -306.812 -297.447 -304.98 -317.521 -323.99 -316.303 -322.874 -323.99 -330.581 -322.874 -329.556 -316.303 -322.874 -314.96 -321.646 -322.874 -329.556 -321.646 -328.434 -330.581 -337.275 -329.556 -336.339 -337.275 -344.067 -336.339 -343.209 -329.556 -336.339 -328.434 -335.313 -336.339 -343.209 -335.313 -342.273 -314.96 -321.646 -313.502 -320.317 -321.646 -328.434 -320.317 -327.221 -313.502 -320.317 -311.948 -318.899 -320.317 -327.221 -318.899 -325.928 -328.434 -335.313 -327.221 -334.206 -335.313 -342.273 -334.206 -341.264 -327.221 -334.206 -325.928 -333.028 -334.206 -341.264 -333.028 -340.19 -311.948 -318.899 -310.307 -317.402 -318.899 -325.928 -317.402 -324.564 -310.307 -317.402 -308.59 -315.839 -317.402 -324.564 -315.839 -323.142 -325.928 -333.028 -324.564 -331.786 -333.028 -340.19 -331.786 -339.062 -324.564 -331.786 -323.142 -330.491 -331.786 -339.062 -330.491 -337.884 -308.59 -315.839 -306.812 -314.222 -315.839 -323.142 -314.222 -321.675 -306.812 -314.222 -304.98 -312.574 -314.222 -321.675 -312.574 -320.167 -323.142 -330.491 -321.675 -329.158 -330.491 -337.884 -329.158 -336.661 -321.675 -329.158 -320.167 -327.803 -329.158 -336.661 -327.803 -335.438 -232.548 -239.257 -227.589 -234.76 -239.257 -246.168 -234.76 -242.082 -227.589 -234.76 -222.438 -230.112 -234.76 -242.082 -230.112 -237.886 -222.438 -230.112 -217.147 -225.367 -230.112 -237.886 -225.367 -233.625 -217.147 -225.367 -211.795 -220.587 -225.367 -233.625 -220.587 -229.35 -260.394 -267.667 -257.041 -264.629 -267.667 -275.021 -264.629 -272.269 -257.041 -264.629 -253.617 -261.545 -264.629 -272.269 -261.545 -269.474 -237.886 -245.731 -233.625 -241.9 -245.731 -253.617 -241.9 -250.18 -233.625 -241.9 -229.35 -238.07 -241.9 -250.18 -238.07 -246.743 -211.795 -220.587 -206.456 -215.838 -220.587 -229.35 -215.838 -225.117 -206.456 -215.838 -201.217 -211.198 -215.838 -225.117 -211.198 -220.986 -240.068 -249.383 -236.932 -246.585 -249.383 -258.559 -246.585 -256.058 -236.932 -246.585 -233.997 -243.972 -246.585 -256.058 -243.972 -253.715 -258.