# vtk DataFile Version 3.0
#This file was generated by the deal.II library on 2016/5/13 at 16:44:23
ASCII
DATASET UNSTRUCTURED_GRID

POINTS 52508 double
187500 -87500 0
200000 -87500 0
187500 -75000 0
200000 -75000 0
187500 -62500 0
200000 -62500 0
187500 -50000 0
200000 -50000 0
175000 -50000 0
187500 -50000 0
175000 -37500 0
187500 -37500 0
187500 -50000 0
200000 -50000 0
187500 -37500 0
200000 -37500 0
131250 -81250 0
137500 -81250 0
131250 -75000 0
137500 -75000 0
137500 -81250 0
143750 -81250 0
137500 -75000 0
143750 -75000 0
168750 -12500 0
175000 -12500 0
168750 -6250 0
175000 -6250 0
137500 -68750 0
143750 -68750 0
137500 -62500 0
143750 -62500 0
131250 -56250 0
137500 -56250 0
131250 -50000 0
137500 -50000 0
137500 -62500 0
143750 -62500 0
137500 -56250 0
143750 -56250 0
175000 -100000 0
181250 -100000 0
175000 -93750 0
181250 -93750 0
181250 -93750 0
187500 -93750 0
181250 -87500 0
187500 -87500 0
193750 -100000 0
200000 -100000 0
193750 -93750 0
200000 -93750 0
187500 -93750 0
193750 -93750 0
187500 -87500 0
193750 -87500 0
193750 -93750 0
200000 -93750 0
193750 -87500 0
200000 -87500 0
181250 -87500 0
187500 -87500 0
181250 -81250 0
187500 -81250 0
175000 -81250 0
181250 -81250 0
175000 -75000 0
181250 -75000 0
181250 -81250 0
187500 -81250 0
181250 -75000 0
187500 -75000 0
162500 -25000 0
168750 -25000 0
162500 -18750 0
168750 -18750 0
168750 -25000 0
175000 -25000 0
168750 -18750 0
175000 -18750 0
162500 -18750 0
168750 -18750 0
162500 -12500 0
168750 -12500 0
168750 -18750 0
175000 -18750 0
168750 -12500 0
175000 -12500 0
175000 -75000 0
181250 -75000 0
175000 -68750 0
181250 -68750 0
181250 -75000 0
187500 -75000 0
181250 -68750 0
187500 -68750 0
175000 -68750 0
181250 -68750 0
175000 -62500 0
181250 -62500 0
181250 -68750 0
187500 -68750 0
181250 -62500 0
187500 -62500 0
156250 -37500 0
162500 -37500 0
156250 -31250 0
162500 -31250 0
162500 -37500 0
168750 -37500 0
162500 -31250 0
168750 -31250 0
168750 -37500 0
175000 -37500 0
168750 -31250 0
175000 -31250 0
162500 -31250 0
168750 -31250 0
162500 -25000 0
168750 -25000 0
175000 -37500 0
181250 -37500 0
175000 -31250 0
181250 -31250 0
181250 -37500 0
187500 -37500 0
181250 -31250 0
187500 -31250 0
175000 -31250 0
181250 -31250 0
175000 -25000 0
181250 -25000 0
181250 -31250 0
187500 -31250 0
181250 -25000 0
187500 -25000 0
187500 -25000 0
193750 -25000 0
187500 -18750 0
193750 -18750 0
150000 -62500 0
156250 -62500 0
150000 -56250 0
156250 -56250 0
156250 -62500 0
162500 -62500 0
156250 -56250 0
162500 -56250 0
150000 -56250 0
156250 -56250 0
150000 -50000 0
156250 -50000 0
156250 -56250 0
162500 -56250 0
156250 -50000 0
162500 -50000 0
162500 -62500 0
168750 -62500 0
162500 -56250 0
168750 -56250 0
168750 -62500 0
175000 -62500 0
168750 -56250 0
175000 -56250 0
162500 -56250 0
168750 -56250 0
162500 -50000 0
168750 -50000 0
168750 -56250 0
175000 -56250 0
168750 -50000 0
175000 -50000 0
187500 -75000 0
193750 -75000 0
187500 -68750 0
193750 -68750 0
193750 -75000 0
200000 -75000 0
193750 -68750 0
200000 -68750 0
187500 -68750 0
193750 -68750 0
187500 -62500 0
193750 -62500 0
193750 -68750 0
200000 -68750 0
193750 -62500 0
200000 -62500 0
175000 -62500 0
181250 -62500 0
175000 -56250 0
181250 -56250 0
181250 -62500 0
187500 -62500 0
181250 -56250 0
187500 -56250 0
175000 -56250 0
181250 -56250 0
175000 -50000 0
181250 -50000 0
181250 -56250 0
187500 -56250 0
181250 -50000 0
187500 -50000 0
150000 -50000 0
156250 -50000 0
150000 -43750 0
156250 -43750 0
156250 -50000 0
162500 -50000 0
156250 -43750 0
162500 -43750 0
150000 -43750 0
156250 -43750 0
150000 -37500 0
156250 -37500 0
156250 -43750 0
162500 -43750 0
156250 -37500 0
162500 -37500 0
162500 -50000 0
168750 -50000 0
162500 -43750 0
168750 -43750 0
168750 -50000 0
175000 -50000 0
168750 -43750 0
175000 -43750 0
162500 -43750 0
168750 -43750 0
162500 -37500 0
168750 -37500 0
168750 -43750 0
175000 -43750 0
168750 -37500 0
175000 -37500 0
187500 -37500 0
193750 -37500 0
187500 -31250 0
193750 -31250 0
193750 -37500 0
200000 -37500 0
193750 -31250 0
200000 -31250 0
187500 -31250 0
193750 -31250 0
187500 -25000 0
193750 -25000 0
193750 -31250 0
200000 -31250 0
193750 -25000 0
200000 -25000 0
0 -100000 0
3125 -100000 0
0 -96875 0
3125 -96875 0
0 -93750 0
3125 -93750 0
0 -90625 0
3125 -90625 0
12500 -100000 0
15625 -100000 0
12500 -96875 0
15625 -96875 0
15625 -100000 0
18750 -100000 0
15625 -96875 0
18750 -96875 0
15625 -93750 0
18750 -93750 0
15625 -90625 0
18750 -90625 0
40625 -78125 0
43750 -78125 0
40625 -75000 0
43750 -75000 0
43750 -78125 0
46875 -78125 0
43750 -75000 0
46875 -75000 0
40625 -75000 0
43750 -75000 0
40625 -71875 0
43750 -71875 0
43750 -75000 0
46875 -75000 0
43750 -71875 0
46875 -71875 0
40625 -65625 0
43750 -65625 0
40625 -62500 0
43750 -62500 0
43750 -65625 0
46875 -65625 0
43750 -62500 0
46875 -62500 0
53125 -100000 0
56250 -100000 0
53125 -96875 0
56250 -96875 0
81250 -100000 0
84375 -100000 0
81250 -96875 0
84375 -96875 0
81250 -84375 0
84375 -84375 0
81250 -81250 0
84375 -81250 0
84375 -84375 0
87500 -84375 0
84375 -81250 0
87500 -81250 0
78125 -81250 0
81250 -81250 0
78125 -78125 0
81250 -78125 0
81250 -81250 0
84375 -81250 0
81250 -78125 0
84375 -78125 0
106250 -81250 0
109375 -81250 0
106250 -78125 0
109375 -78125 0
131250 -100000 0
134375 -100000 0
131250 -96875 0
134375 -96875 0
131250 -96875 0
134375 -96875 0
131250 -93750 0
134375 -93750 0
140625 -100000 0
143750 -100000 0
140625 -96875 0
143750 -96875 0
140625 -96875 0
143750 -96875 0
140625 -93750 0
143750 -93750 0
143750 -100000 0
146875 -100000 0
143750 -96875 0
146875 -96875 0
143750 -96875 0
146875 -96875 0
143750 -93750 0
146875 -93750 0
140625 -93750 0
143750 -93750 0
140625 -90625 0
143750 -90625 0
140625 -90625 0
143750 -90625 0
140625 -87500 0
143750 -87500 0
143750 -93750 0
146875 -93750 0
143750 -90625 0
146875 -90625 0
143750 -90625 0
146875 -90625 0
143750 -87500 0
146875 -87500 0
146875 -90625 0
150000 -90625 0
146875 -87500 0
150000 -87500 0
134375 -87500 0
137500 -87500 0
134375 -84375 0
137500 -84375 0
131250 -84375 0
134375 -84375 0
131250 -81250 0
134375 -81250 0
134375 -84375 0
137500 -84375 0
134375 -81250 0
137500 -81250 0
128125 -81250 0
131250 -81250 0
128125 -78125 0
131250 -78125 0
128125 -78125 0
131250 -78125 0
128125 -75000 0
131250 -75000 0
93750 -56250 0
96875 -56250 0
93750 -53125 0
96875 -53125 0
96875 -56250 0
100000 -56250 0
96875 -53125 0
100000 -53125 0
93750 -53125 0
96875 -53125 0
93750 -50000 0
96875 -50000 0
96875 -53125 0
100000 -53125 0
96875 -50000 0
100000 -50000 0
137500 -87500 0
140625 -87500 0
137500 -84375 0
140625 -84375 0
140625 -87500 0
143750 -87500 0
140625 -84375 0
143750 -84375 0
137500 -84375 0
140625 -84375 0
137500 -81250 0
140625 -81250 0
140625 -84375 0
143750 -84375 0
140625 -81250 0
143750 -81250 0
143750 -87500 0
146875 -87500 0
143750 -84375 0
146875 -84375 0
146875 -87500 0
150000 -87500 0
146875 -84375 0
150000 -84375 0
143750 -84375 0
146875 -84375 0
143750 -81250 0
146875 -81250 0
68750 -50000 0
71875 -50000 0
68750 -46875 0
71875 -46875 0
71875 -50000 0
75000 -50000 0
71875 -46875 0
75000 -46875 0
68750 -46875 0
71875 -46875 0
68750 -43750 0
71875 -43750 0
71875 -46875 0
75000 -46875 0
71875 -43750 0
75000 -43750 0
143750 -81250 0
146875 -81250 0
143750 -78125 0
146875 -78125 0
143750 -78125 0
146875 -78125 0
143750 -75000 0
146875 -75000 0
121875 -75000 0
125000 -75000 0
121875 -71875 0
125000 -71875 0
109375 -59375 0
112500 -59375 0
109375 -56250 0
112500 -56250 0
112500 -59375 0
115625 -59375 0
112500 -56250 0
115625 -56250 0
115625 -59375 0
118750 -59375 0
115625 -56250 0
118750 -56250 0
118750 -59375 0
121875 -59375 0
118750 -56250 0
121875 -56250 0
121875 -59375 0
125000 -59375 0
121875 -56250 0
125000 -56250 0
140625 -6250 0
143750 -6250 0
140625 -3125 0
143750 -3125 0
140625 -3125 0
143750 -3125 0
140625 0 0
143750 0 0
143750 -6250 0
146875 -6250 0
143750 -3125 0
146875 -3125 0
143750 -3125 0
146875 -3125 0
143750 0 0
146875 0 0
75000 -50000 0
78125 -50000 0
75000 -46875 0
78125 -46875 0
78125 -50000 0
81250 -50000 0
78125 -46875 0
81250 -46875 0
75000 -46875 0
78125 -46875 0
75000 -43750 0
78125 -43750 0
78125 -46875 0
81250 -46875 0
78125 -43750 0
81250 -43750 0
81250 -50000 0
84375 -50000 0
81250 -46875 0
84375 -46875 0
84375 -50000 0
87500 -50000 0
84375 -46875 0
87500 -46875 0
81250 -46875 0
84375 -46875 0
81250 -43750 0
84375 -43750 0
84375 -46875 0
87500 -46875 0
84375 -43750 0
87500 -43750 0
81250 -43750 0
84375 -43750 0
81250 -40625 0
84375 -40625 0
84375 -43750 0
87500 -43750 0
84375 -40625 0
87500 -40625 0
81250 -40625 0
84375 -40625 0
81250 -37500 0
84375 -37500 0
84375 -40625 0
87500 -40625 0
84375 -37500 0
87500 -37500 0
112500 -100000 0
115625 -100000 0
112500 -96875 0
115625 -96875 0
115625 -100000 0
118750 -100000 0
115625 -96875 0
118750 -96875 0
112500 -96875 0
115625 -96875 0
112500 -93750 0
115625 -93750 0
115625 -96875 0
118750 -96875 0
115625 -93750 0
118750 -93750 0
112500 -93750 0
115625 -93750 0
112500 -90625 0
115625 -90625 0
115625 -93750 0
118750 -93750 0
115625 -90625 0
118750 -90625 0
112500 -90625 0
115625 -90625 0
112500 -87500 0
115625 -87500 0
115625 -90625 0
118750 -90625 0
115625 -87500 0
118750 -87500 0
118750 -93750 0
121875 -93750 0
118750 -90625 0
121875 -90625 0
121875 -93750 0
125000 -93750 0
121875 -90625 0
125000 -90625 0
118750 -90625 0
121875 -90625 0
118750 -87500 0
121875 -87500 0
121875 -90625 0
125000 -90625 0
121875 -87500 0
125000 -87500 0
112500 -87500 0
115625 -87500 0
112500 -84375 0
115625 -84375 0
115625 -87500 0
118750 -87500 0
115625 -84375 0
118750 -84375 0
112500 -84375 0
115625 -84375 0
112500 -81250 0
115625 -81250 0
115625 -84375 0
118750 -84375 0
115625 -81250 0
118750 -81250 0
112500 -81250 0
115625 -81250 0
112500 -78125 0
115625 -78125 0
115625 -81250 0
118750 -81250 0
115625 -78125 0
118750 -78125 0
112500 -78125 0
115625 -78125 0
112500 -75000 0
115625 -75000 0
115625 -78125 0
118750 -78125 0
115625 -75000 0
118750 -75000 0
118750 -81250 0
121875 -81250 0
[...]
POINT_DATA 52508
SCALARS velocity double 1
LOOKUP_TABLE default
-260.68 -259.56 -261.617 -261.551 -259.019 -257.198 -259.027 -258.956 -259.876 -259.027 -258.14 -258.624 -259.027 -258.956 -258.624 -260.015 -266.428 -268.629 -268.974 -268.713 -268.629 -270.593 -268.713 -269.868 -250.806 -251.855 -247.926 -246.903 -267.471 -267.774 -267.573 -267.709 -269.059 -269.059 -271.927 -271.449 -267.573 -267.709 -269.059 -268.32 -261.565 -260.308 -261.994 -260.565 -260.565 -259.344 -261.154 -260.68 -255.827 -253.983 -257.805 -256.876 -259.344 -257.805 -260.68 -260.12 -257.805 -256.876 -260.12 -259.56 -261.154 -260.68 -261.558 -261.149 -261.712 -261.558 -260.828 -261.035 -261.558 -261.149 -261.035 -261.617 -255.238 -256.019 -252.439 -253.533 -256.019 -256.967 -253.533 -255.019 -252.439 -253.533 -250.275 -250.806 -253.533 -255.019 -250.806 -251.855 -260.828 -261.035 -262.178 -260.85 -261.035 -261.617 -260.85 -260.16 -262.178 -260.85 -261.164 -260.881 -260.85 -260.16 -260.881 -259.019 -259.838 -258.644 -257.959 -257.17 -258.644 -257.981 -257.17 -257.987 -257.981 -258.14 -257.987 -257.751 -257.17 -257.987 -255.238 -256.019 -258.14 -258.382 -257.751 -258.231 -258.382 -258.624 -258.231 -258.703 -257.751 -258.231 -256.967 -257.95 -258.231 -258.703 -257.95 -258.04 -258.04 -259.44 -256.984 -258.551 -266.632 -265.444 -266.268 -263.371 -265.444 -265.173 -263.371 -262.409 -266.268 -263.371 -264.515 -262.524 -263.371 -262.409 -262.524 -261.156 -265.173 -262.399 -262.409 -261.396 -262.399 -261.164 -261.396 -260.518 -262.409 -261.396 -261.156 -260.448 -261.396 -260.518 -260.448 -259.876 -261.617 -261.584 -260.16 -259.149 -261.584 -261.551 -259.149 -258.975 -260.16 -259.149 -259.019 -258.108 -259.149 -258.975 -258.108 -257.198 -261.164 -260.881 -260.518 -259.765 -260.881 -259.019 -259.765 -259.023 -260.518 -259.765 -259.876 -259.451 -259.765 -259.023 -259.451 -259.027 -264.515 -262.524 -263.88 -261.653 -262.524 -261.156 -261.653 -260.219 -263.88 -261.653 -263.864 -259.838 -261.653 -260.219 -259.838 -258.644 -261.156 -260.448 -260.219 -259.654 -260.448 -259.876 -259.654 -259.008 -260.219 -259.654 -258.644 -257.981 -259.654 -259.008 -257.981 -258.14 -258.624 -259.319 -258.703 -259.503 -259.319 -260.015 -259.503 -260.288 -258.703 -259.503 -258.04 -259.44 -259.503 -260.288 -259.44 -260.651 -309.149 -294.361 -310.167 -294.587 -310.543 -295.573 -312.195 -301.595 -270.63 -259.055 -271.198 -260.713 -259.055 -246.576 -260.713 -248.43 -262.304 -251.018 -263.637 -251.813 -192.985 -196.16 -198.761 -202.656 -196.16 -198.347 -202.656 -205.934 -198.761 -202.656 -206.673 -210.799 -202.656 -205.934 -210.799 -212.101 -215.44 -219.832 -219.856 -223.798 -219.832 -224.866 -223.798 -227.794 -150.128 -158.002 -158.264 -165.422 -195.784 -205.082 -206.367 -214.863 -239.769 -246.01 -244.071 -249.975 -246.01 -253.579 -249.975 -258.897 -233.159 -244.071 -236.748 -245.745 -244.071 -249.975 -245.745 -254.362 -289.811 -289.278 -290.744 -290.217 -279.422 -281.253 -278.209 -280.798 -278.209 -280.798 -278.388 -280.399 -277.815 -275.071 -275.369 -275.173 -275.369 -275.173 -273.515 -273.334 -275.071 -277.02 -275.173 -275.446 -275.173 -275.446 -273.334 -274.254 -273.515 -273.334 -271.025 -271.649 -271.025 -271.649 -268.209 -270.82 -273.334 -274.254 -271.649 -270.934 -271.649 -270.934 -270.82 -271.239 -270.934 -268.499 -271.239 -270.974 -270.202 -267.839 -266.97 -268.588 -267.562 -266.97 -266.428 -267.529 -266.97 -268.588 -267.529 -268.629 -267.144 -266.428 -267.671 -267.701 -267.671 -267.701 -268.549 -268.974 -291.768 -290.401 -288.507 -288.108 -290.401 -287.801 -288.108 -287.849 -288.507 -288.108 -287.271 -286.015 -288.108 -287.849 -286.015 -285.178 -267.839 -268.209 -268.588 -269.264 -268.209 -270.82 -269.264 -270.725 -268.588 -269.264 -268.629 -269.611 -269.264 -270.725 -269.611 -270.593 -270.82 -271.239 -270.725 -273.579 -271.239 -270.974 -273.579 -273.305 -270.725 -273.579 -270.593 -272.884 -272.674 -277.039 -268.174 -272.82 -277.039 -281.332 -272.82 -277.278 -268.174 -272.82 -263.953 -268.962 -272.82 -277.278 -268.962 -273.146 -270.593 -272.884 -270.23 -271.943 -270.23 -271.943 -269.868 -269.226 -277.419 -272.052 -277.188 -274.047 -277.082 -273.417 -274.489 -274.624 -273.417 -270.727 -274.624 -272.948 -270.727 -268.661 -272.948 -271.302 -268.661 -267.218 -271.302 -269.861 -267.218 -267.64 -269.861 -268.503 -230.197 -229.706 -227.455 -228.904 -227.455 -228.904 -222.728 -229.048 -229.706 -233.869 -228.904 -230.732 -228.904 -230.732 -229.048 -227.267 -281.332 -284.085 -277.278 -278.994 -284.085 -286.654 -278.994 -280.921 -277.278 -278.994 -273.146 -274.387 -278.994 -280.921 -274.387 -274.144 -286.654 -288.701 -280.921 -283.691 -288.701 -291.347 -283.691 -287.49 -280.921 -283.691 -274.144 -277.256 -283.691 -287.49 -277.256 -282.866 -274.144 -277.256 -268.201 -273.616 -277.256 -282.866 -273.616 -278.519 -268.201 -273.616 -263.945 -269.922 -273.616 -278.519 -269.922 -273.594 -275.976 -279.567 -276.856 -280.85 -279.567 -286.737 -280.85 -285.349 -276.856 -280.85 -278.634 -281.178 -280.85 -285.349 -281.178 -282.608 -278.634 -281.178 -283.367 -283.5 -281.178 -282.608 -283.5 -283.405 -283.367 -283.5 -287.676 -285.846 -283.5 -283.405 -285.846 -285.375 -282.608 -278.076 -283.405 -280.166 -278.076 -275.211 -280.166 -277.11 -283.405 -280.166 -285.375 -281.825 -280.166 -277.11 -281.825 -277.699 -287.676 -285.846 -287.767 -286.487 -285.846 -285.375 -286.487 -285.368 -287.767 -286.487 -288.291 -286.969 -286.487 -285.368 -286.969 -284.609 -288.291 -286.969 -288.527 -286.077 -286.969 -284.609 -286.077 -283.611 -288.527 -286.077 -287.752 -286.442 -286.077 -283.611 -286.442 -282.414 -284.609 -276.169 -283.611 -277.844 -276.169 -270.219 -277.844 -271.207 -283.611 -277.844 -282.414 -277.419 -277.844 -271.207 -277.419 -272.052 -296.562 -291.591 -296.389 -292.989 -291.591 -288.642 -292.989 -289.666 -296.389 -292.989 -296.346 -293.881 -292.989 -289.666 -293.881 -290.753 -288.642 -286.875 -289.666 -287.609 -286.875 -287.752 -287.609 -285.266 -289.666 -287.609 -290.753 -288.505 -287.609 -285.266 -288.505 -284.988 -280.255 -273.661 -283.753 -275.583 -273.661 -270.487 -275.583 -268.226 -283.753 -275.583 -287.874 -277.688 -275.583 -268.226 -277.688 -267 -282.6 -280.317 -284.167 -281.526 -280.317 -280.715 -281.526 -279.274 -284.167 -281.526 -286.299 -283.553 -281.526 -279.274 -283.553 -276.532 -276.532 -273.402 -280.585 -279.178 -273.402 -274.429 -279.178 -277.592 -280.585 -279.178 -286.513 -285.272 -279.178 -277.592 -285.272 -280.255 -291.347 -289.428 -287.49 -286.643 -289.428 -287.271 -286.643 -287.131 -287.49 -286.643 -282.866 -285.372 -286.643 -287.131 -285.372 -286.116 -287.271 -286.015 -287.131 -285.708 -286.015 -285.178 -285.708 -283.567 -287.131 -285.708 -286.116 -284.706 -285.708 -283.567 -284.706 -283.962 -287.801 -281.751 -287.849 -282.662 -281.751 -277.041 -282.662 -278.839 -287.849 -282.662 -285.178 -282.493 -282.662 -278.839 -282.493 -279.771 -277.041 -274.489 -278.839 -276.486 -274.489 -274.624 -276.486 -274.472 -278.839 -276.486 -279.771 -277.244 -276.486 -274.472 -277.244 -275.058 -274.624 -272.948 -274.472 -273.365 -272.948 -271.302 -273.365 -271.507 -274.472 -273.365 -275.058 -273.234 -273.365 -271.507 -273.234 -271.221 -271.302 -269.861 -271.507 -269.689 -269.861 -268.503 -269.689 -268.233 -271.507 -269.689 -271.221 -270.012 -269.689 -268.233 -270.012 -269.904 -273.856 -268.002 -271.065 -266.08 -268.002 -263.471 -266.08 -262.342 -271.065 -266.08 -269.758 -265.336 -266.08 -262.342 -265.336 -261.221 -263.471 -259.372 -262.342 -259.181 -259.372 -256.936 -259.181 -256.395 -262.342 -259.181 -261.221 -258.555 -259.181 -256.395 -258.555 -256.424 -269.758 -265.336 -268.499 -266.433 -265.336 -261.221 -266.433 -262.303 -268.499 -266.433 -270.974 -267.674 -266.433 -262.303 -267.674 -266.431 -261.221 -258.555 -262.303 -260.85 -258.555 -256.424 -260.85 -258.753 -262.303 -260.85 -266.431 -264.483 -260.85 -258.753 -264.483 -261.688 -270.974 -267.674 -273.305 -269.357 -267.674 -266.431 -269.357 -266.856 -273.305 -269.357 -272.475 -270.427 -269.357 -266.856 -270.427 -266.714 -266.431 -264.483 -266.856 -264.008 -264.483 -261.688 -264.008 -260.519 -266.856 -264.008 -266.714 -263.902 -264.008 -260.519 -263.902 -260.188 -272.475 -270.427 -270.122 -268.438 -270.427 -266.714 -268.438 -267.215 -270.122 -268.438 -268.084 -268.174 -268.438 -267.215 -268.174 -267.349 -266.714 -263.902 -267.215 -265.392 -263.902 -260.188 -265.392 -261.075 -267.215 -265.392 -267.349 -265.368 -265.392 -261.075 -265.368 -263.077 -285.178 -282.493 -283.567 -282.179 -282.493 -279.771 -282.179 -280.455 -283.567 -282.179 -283.962 -283.328 -282.179 -280.455 -283.328 -282.076 -279.771 -277.244 -280.455 -278.651 -277.244 -275.058 -278.651 -276.735 -280.455 -278.651 -282.076 -280.789 -278.651 -276.735 -280.789 -278.478 -252.178 -255.02 -248.96 -252.232 -255.02 -255.111 -252.232 -252.867 -248.96 -252.232 -250.022 -252.062 -252.232 -252.867 -252.062 -251.792 -277.563 -273.823 -278.513 -275.782 -273.823 -271.634 -275.782 -274.504 -278.513 -275.782 -279.689 -279.305 -275.782 -274.504 -279.305 -278.839 -271.634 -270.246 -274.504 -274.119 -270.246 -268.821 -274.119 -270.794 -274.504 -274.119 -278.839 -281.494 -274.119 -270.794 -281.494 -273.421 -268.821 -266.97 -270.794 -266.291 -266.97 -263.864 -266.291 -262.525 -270.794 -266.291 -273.421 -263.698 -266.291 -262.525 -263.698 -260.343 -273.421 -263.698 -265.263 -259.746 -263.698 -260.343 -259.746 -257.547 -265.263 -259.746 -252.178 -255.02 -259.746 -257.547 -255.02 -255.111 -255.111 -254.478 -252.867 -253.719 -254.478 -254.461 -253.719 -254.043 -252.867 -253.719 -251.792 -252.912 -253.719 -254.043 -252.912 -253.398 -254.461 -254.803 -254.043 -254.274 -254.803 -255.238 -254.274 -253.839 -254.043 -254.274 -253.398 -252.46 -254.274 -253.839 -252.46 -252.439 -251.792 -252.912 -247.954 -249.284 -252.912 -253.398 -249.284 -250.03 -247.954 -249.284 -246.607 -246.546 -249.284 -250.03 -246.546 -247.913 -253.398 -252.46 -250.03 -250.631 -252.46 -252.439 -250.631 -251.357 -250.03 -250.631 -247.913 -248.556 -250.631 -251.357 -248.556 -250.275 -256.936 -258.765 -256.395 -258.377 -258.765 -259.613 -258.377 -259.994 -256.395 -258.377 -256.424 -258.825 -258.377 -259.994 -258.825 -260.953 -259.613 -260.228 -259.994 -261.86 -260.228 -261.565 -261.86 -261.779 -259.994 -261.86 -260.953 -261.755 -261.86 -261.779 -261.755 -261.994 -256.424 -258.825 -258.753 -257.389 -258.825 -260.953 -257.389 -260.242 -258.753 -257.389 -261.688 -261.509 -257.389 -260.242 -261.509 -260.344 -260.953 -261.755 -260.242 -261.254 -261.755 -261.994 -261.254 -261.752 -260.242 -261.254 -260.344 -261.655 -261.254 -261.752 -261.655 -263.52 -246.607 -246.546 -242.511 -243.966 -246.546 -247.913 -243.966 -245.749 -242.511 -243.966 -237.423 -240.742 -243.966 -245.749 -240.742 -243.871 -247.913 -248.556 -245.749 -247.659 -248.556 -250.275 -247.659 -249.226 -245.749 -247.659 -243.871 -246.817 -247.659 -249.226 -246.817 -248.811 -237.423 -240.742 -233.467 -237.55 -240.742 -243.871 -237.55 -241.282 -233.467 -237.55 -228.415 -235.705 -237.55 -241.282 -235.705 -240.24 -243.871 -246.817 -241.282 -245.191 -246.817 -248.811 -245.191 -248.047 -241.282 -245.191 -240.24 -244.679 -245.191 -248.047 -244.679 -247.678 -261.688 -261.509 -260.519 -261.109 -261.509 -260.344 -261.109 -261.092 -260.519 -261.109 -260.188 -261.087 -261.109 -261.092 -261.087 -262.244 -260.344 -261.655 -261.092 -261.703 -261.655 -263.52 -261.703 -263.417 -261.092 -261.703 -262.244 -261.744 -261.703 -263.417 -261.744 -261.712 -260.188 -261.087 -261.075 -263.089 -261.087 -262.244 -263.089 -263.409 -261.075 -263.089 -263.077 -264.333 -263.089 -263.409 -264.333 -263.408 -262.244 -261.744 -263.409 -262.388 -261.744 -261.712 -262.388 -261.27 -263.409 -262.388 -263.408 -262.566 -262.388 -261.27 -262.566 -260.828 -275.058 -273.234 -276.735 -275.183 -273.234 -271.221 -275.183 -273.764 -276.735 -275.183 -278.478 -276.692 -275.183 -273.764 -276.692 -275.639 -271.221 -270.012 -273.764 -272.857 -270.012 -269.904 -272.857 -272.134 -273.764 -272.857 -275.639 -274.688 -272.857 -272.134 -274.688 -273.633 -278.478 -276.692 -279.408 -277.949 -276.692 -275.639 -277.949 -276.508 -279.408 -277.949 -280.021 -279.396 -277.949 -276.508 -279.396 -277.492 -275.639 -274.688 -276.508 -275.479 -274.688 -273.633 -275.479 -276.926 -276.508 -275.479 -277.492 -276.699 -275.479 -276.926 -276.699 -279.266 -261.469 -250.775 -261.927 -255.063 -250.775 -246.775 -255.063 -249.774 -261.927 -255.063 -261.357 -256.359 -255.063 -249.774 -256.359 -252.023 -246.775 -246.326 -249.774 -248.486 -246.326 -239.353 -248.486 -245.622 -249.774 -248.486 -252.023 -250.419 -248.486 -245.622 -250.419 -249.557 -261.357 -256.359 -254.546 -253.839 -256.359 -252.023 -253.839 -252.225 -254.546 -253.839 -247.572 -251.522 -253.839 -252.225 -251.522 -253.398 -252.023 -250.419 -252.225 -250.867 -250.419 -249.557 -250.867 -249.844 -252.225 -250.867 -253.398 -251.266 -250.867 -249.844 -251.266 -248.568 -269.904 -271.511 -272.134 -272.554 -271.511 -271.927 -272.554 -272.495 -272.134 -272.554 -273.633 -274.044 -272.554 -272.495 -274.044 -273.958 -271.927 -271.688 -272.495 -271.989 -271.688 -271.449 -271.989 -271.002 -272.495 -271.989 -273.958 -272.851 -271.989 -271.002 -272.851 -270.872 -273.633 -274.044 -276.926 -276.474 -274.044 -273.958 -276.474 -275.263 -276.926 -276.474 -279.266 -279.719 -276.474 -275.263 -279.719 -277.563 -273.958 -272.851 -275.263 -273.362 -272.851 -270.872 -273.362 -271.404 -275.263 -273.362 -277.563 -273.823 -273.362 -271.404 -273.823 -271.634 -271.449 -270.776 -271.002 -269.846 -270.776 -269.462 -269.846 -267.869 -271.002 -269.846 -270.872 -268.669 -269.846 -267.869 -268.669 -267.473 -269.462 -267.395 -267.869 -266.203 -267.395 -264.515 -266.203 -264.198 -267.869 -266.203 -267.473 -266.273 -266.203 -264.198 -266.273 -263.88 -270.872 -268.669 -271.404 -269.532 -268.669 -267.473 -269.532 -267.827 -271.404 -269.532 -271.634 -270.246 -269.532 -267.827 -270.246 -268.821 -267.473 -266.273 -267.827 -266.308 -266.273 -263.88 -266.308 -263.872 -267.827 -266.308 -268.821 -266.97 -266.308 -263.872 -266.97 -263.864 -250.275 -250.54 -249.226 -249.393 -250.54 -250.806 -249.393 -249.366 -249.226 -249.393 -248.811 -248.505 -249.393 -249.366 -248.505 -247.926 -248.811 -248.505 -248.047 -247.908 -248.505 -247.926 -247.908 -247.343 -248.047 -247.908 -247.678 -247.855 -247.908 -247.343 -247.855 -247.014 -247.926 -247.414 -247.343 -246.252 -247.414 -246.903 -246.252 -243.783 -247.343 -246.252 -247.014 -245.171 -246.252 -243.783 -245.171 -242.271 -272.052 -268.549 -274.047 -270.699 -268.549 -268.974 -270.699 -269.271 -274.047 -270.699 -272.611 -270.912 -270.699 -269.271 -270.912 -269.29 -268.974 -268.844 -269.271 -268.704 -268.844 -268.713 -268.704 -267.872 -269.271 -268.704 -269.29 -268.083 -268.704 -267.872 -268.083 -267.471 -272.611 -270.912 -270.872 -269.902 -270.912 -269.29 -269.902 -268.416 -270.872 -269.902 -270.225 -269.034 -269.902 -268.416 -269.034 -268.021 -269.29 -268.083 -268.416 -267.803 -268.083 -267.471 -267.803 -267.522 -268.416 -267.803 -268.021 -268.024 -267.803 -267.522 -268.024 -267.573 -268.713 -269.29 -267.872 -268.427 -269.29 -269.868 -268.427 -268.538 -267.872 -268.427 -267.471 -267.622 -268.427 -268.538 -267.622 -267.774 -269.868 -269.226 -268.538 -268.338 -269.226 -268.084 -268.338 -268.172 -268.538 -268.338 -267.774 -267.712 -268.338 -268.172 -267.712 -267.521 -267.774 -267.712 -267.741 -267.561 -267.712 -267.521 -267.561 -267.295 -267.741 -267.561 -267.709 -267.332 -267.561 -267.295 -267.332 -266.632 -270.225 -269.034 -267.64 -268.707 -269.034 -268.021 -268.707 -268.484 -267.64 -268.707 -268.503 -268.91 -268.707 -268.484 -268.91 -269.059 -268.021 -268.024 -268.484 -268.542 -268.024 -267.573 -268.542 -268.316 -268.484 -268.542 -269.059 -269.059 -268.542 -268.316 -269.059 -269.059 -268.503 -268.91 -268.233 -269.799 -268.91 -269.059 -269.799 -270.493 -268.233 -269.799 -269.904 -271.511 -269.799 -270.493 -271.511 -271.927 -267.709 -267.332 -268.014 -267.247 -267.332 -266.632 -267.247 -266.45 -268.014 -267.247 -268.32 -267.33 -267.247 -266.45 -267.33 -266.268 -269.059 -268.689 -270.254 -269.591 -268.689 -268.32 -269.591 -268.664 -270.254 -269.591 -271.449 -270.776 -269.591 -268.664 -270.776 -269.462 -268.32 -267.33 -268.664 -267.233 -267.33 -266.268 -267.233 -265.392 -268.664 -267.233 -269.462 -267.395 -267.233 -265.392 -267.395 -264.515 -260.308 -259.611 -260.436 -259.839 -259.611 -259.239 -259.839 -259.364 -260.436 -259.839 -260.565 -259.954 -259.839 -259.364 -259.954 -259.344 -261.994 -261.279 -261.752 -261.792 -261.279 -260.565 -261.792 -260.859 -261.752 -261.792 -263.52 -262.099 -261.792 -260.859 -262.099 -261.154 -259.239 -257.843 -259.364 -258.039 -257.843 -255.827 -258.039 -256.816 -259.364 -258.039 -259.344 -258.575 -258.039 -256.816 -258.575 -257.805 -263.52 -262.099 -263.417 -262.144 -262.099 -261.154 -262.144 -261.356 -263.417 -262.144 -261.712 -261.635 -262.144 -261.356 -261.635 -261.558 -268.084 -268.174 -268.172 -267.357 -268.174 -267.349 -267.357 -266.771 -268.172 -267.357 -267.521 -266.965 -267.357 -266.771 -266.965 -266.044 -267.349 -265.368 -266.771 -265.587 -265.368 -263.077 -265.587 -264.259 -266.771 -265.587 -266.044 -264.743 -265.587 -264.259 -264.743 -264.228 -267.521 -266.965 -267.295 -266.4 -266.965 -266.044 -266.4 -265.279 -267.295 -266.4 -266.632 -266.038 -266.4 -265.279 -266.038 -265.444 -266.044 -264.743 -265.279 -264.83 -264.743 -264.228 -264.83 -264.658 -265.279 -264.83 -265.444 -265.309 -264.83 -264.658 -265.309 -265.173 -263.077 -264.333 -264.259 -263.854 -264.333 -263.408 -263.854 -263.587 -264.259 -263.854 -264.228 -264.103 -263.854 -263.587 -264.103 -263.761 -263.408 -262.566 -263.587 -262.677 -262.566 -260.828 -262.677 -261.503 -263.587 -262.677 -263.761 -263.084 -262.677 -261.503 -263.084 -262.178 -264.228 -264.103 -264.658 -264.01 -264.103 -263.761 -264.01 -263.55 -264.658 -264.01 -265.173 -263.786 -264.01 -263.55 -263.786 -262.399 -263.761 -263.084 -263.55 -262.666 -263.084 -262.178 -262.666 -261.671 -263.55 -262.666 -262.399 -261.782 -262.666 -261.671 -261.782 -261.164 -263.864 -261.851 -262.525 -260.582 -261.851 -259.838 -260.582 -258.899 -262.525 -260.582 -260.343 -258.884 -260.582 -258.899 -258.884 -257.959 -260.343 -258.884 -257.547 -256.864 -258.884 -257.959 -256.864 -256.38 -257.547 -256.864 -255.111 -254.478 -256.864 -256.38 -254.478 -254.461 -257.959 -257.565 -256.38 -256.328 -257.565 -257.17 -256.328 -256.204 -256.38 -256.328 -254.461 -254.803 -256.328 -256.204 -254.803 -255.238 -257.987 -257.869 -257.003 -257.14 -257.869 -257.751 -257.14 -257.359 -257.003 -257.14 -256.019 -256.493 -257.14 -257.359 -256.493 -256.967 -256.967 -257.459 -255.993 -256.355 -257.459 -257.95 -256.355 -256.456 -255.993 -256.355 -255.019 -255.049 -256.355 -256.456 -255.049 -255.24 -257.95 -257.995 -256.456 -256.95 -257.995 -258.04 -256.95 -257.512 -256.456 -256.95 -255.24 -255.814 -256.95 -257.512 -255.814 -256.984 -255.019 -255.049 -253.437 -253.493 -255.049 -255.24 -253.493 -253.54 -253.437 -253.493 -251.855 -252.14 -253.493 -253.54 -252.14 -252.367 -255.24 -255.814 -253.54 -254.319 -255.814 -256.984 -254.319 -254.681 -253.54 -254.319 -252.367 -253.23 -254.319 -254.681 -253.23 -252.91 -259.44 -260.045 -258.995 -259.285 -260.045 -260.651 -259.285 -258.556 -258.995 -259.285 -258.551 -257.044 -259.285 -258.556 -257.044 -256.363 -256.984 -257.767 -254.681 -255.314 -257.767 -258.551 -255.314 -255.645 -254.681 -255.314 -252.91 -253.072 -255.314 -255.645 -253.072 -253.826 -258.551 -257.044 -255.645 -255.589 -257.044 -256.363 -255.589 -255.69 -255.645 -255.589 -253.826 -254.063 -255.589 -255.69 -254.063 -254.347 -251.855 -252.14 -249.379 -249.11 -252.14 -252.367 -249.11 -248.794 -249.379 -249.11 -246.903 -246.117 -249.11 -248.794 -246.117 -245.234 -252.367 -253.23 -248.794 -248.78 -253.23 -252.91 -248.78 -248.743 -248.794 -248.78 -245.234 -244.67 -248.78 -248.743 -244.67 -244.95 -246.903 -246.117 -243.783 -243.423 -246.117 -245.234 -243.423 -243.31 -243.783 -243.423 -242.271 -241.22 -243.423 -243.31 -241.22 -241.