# vtk DataFile Version 3.0
#This file was generated by the deal.II library on 2016/5/13 at 16:44:16
ASCII
DATASET UNSTRUCTURED_GRID

POINTS 18272 double
162500 -100000 0
175000 -100000 0
162500 -87500 0
175000 -87500 0
162500 -87500 0
175000 -87500 0
162500 -75000 0
175000 -75000 0
112500 -50000 0
125000 -50000 0
112500 -37500 0
125000 -37500 0
125000 -25000 0
137500 -25000 0
125000 -12500 0
137500 -12500 0
125000 -50000 0
137500 -50000 0
125000 -37500 0
137500 -37500 0
137500 -50000 0
150000 -50000 0
137500 -37500 0
150000 -37500 0
162500 -12500 0
175000 -12500 0
162500 0 0
175000 0 0
125000 -75000 0
137500 -75000 0
125000 -62500 0
137500 -62500 0
137500 -75000 0
150000 -75000 0
137500 -62500 0
150000 -62500 0
125000 -62500 0
137500 -62500 0
125000 -50000 0
137500 -50000 0
137500 -62500 0
150000 -62500 0
137500 -50000 0
150000 -50000 0
175000 -100000 0
187500 -100000 0
175000 -87500 0
187500 -87500 0
187500 -100000 0
200000 -100000 0
187500 -87500 0
200000 -87500 0
175000 -87500 0
187500 -87500 0
175000 -75000 0
187500 -75000 0
187500 -87500 0
200000 -87500 0
187500 -75000 0
200000 -75000 0
150000 -75000 0
162500 -75000 0
150000 -62500 0
162500 -62500 0
162500 -75000 0
175000 -75000 0
162500 -62500 0
175000 -62500 0
150000 -62500 0
162500 -62500 0
150000 -50000 0
162500 -50000 0
162500 -62500 0
175000 -62500 0
162500 -50000 0
175000 -50000 0
175000 -75000 0
187500 -75000 0
175000 -62500 0
187500 -62500 0
187500 -75000 0
200000 -75000 0
187500 -62500 0
200000 -62500 0
175000 -62500 0
187500 -62500 0
175000 -50000 0
187500 -50000 0
187500 -62500 0
200000 -62500 0
187500 -50000 0
200000 -50000 0
150000 -50000 0
162500 -50000 0
150000 -37500 0
162500 -37500 0
162500 -50000 0
175000 -50000 0
162500 -37500 0
175000 -37500 0
150000 -37500 0
162500 -37500 0
150000 -25000 0
162500 -25000 0
162500 -37500 0
175000 -37500 0
162500 -25000 0
175000 -25000 0
175000 -50000 0
187500 -50000 0
175000 -37500 0
187500 -37500 0
187500 -50000 0
200000 -50000 0
187500 -37500 0
200000 -37500 0
175000 -37500 0
187500 -37500 0
175000 -25000 0
187500 -25000 0
187500 -37500 0
200000 -37500 0
187500 -25000 0
200000 -25000 0
175000 -25000 0
187500 -25000 0
175000 -12500 0
187500 -12500 0
187500 -25000 0
200000 -25000 0
187500 -12500 0
200000 -12500 0
175000 -12500 0
187500 -12500 0
175000 0 0
187500 0 0
187500 -12500 0
200000 -12500 0
187500 0 0
200000 0 0
87500 -75000 0
93750 -75000 0
87500 -68750 0
93750 -68750 0
43750 -43750 0
50000 -43750 0
43750 -37500 0
50000 -37500 0
75000 -56250 0
81250 -56250 0
75000 -50000 0
81250 -50000 0
81250 -56250 0
87500 -56250 0
81250 -50000 0
87500 -50000 0
87500 -62500 0
93750 -62500 0
87500 -56250 0
93750 -56250 0
93750 -62500 0
100000 -62500 0
93750 -56250 0
100000 -56250 0
87500 -56250 0
93750 -56250 0
87500 -50000 0
93750 -50000 0
93750 -56250 0
100000 -56250 0
93750 -50000 0
100000 -50000 0
56250 -50000 0
62500 -50000 0
56250 -43750 0
62500 -43750 0
50000 -43750 0
56250 -43750 0
50000 -37500 0
56250 -37500 0
62500 -50000 0
68750 -50000 0
62500 -43750 0
68750 -43750 0
68750 -50000 0
75000 -50000 0
68750 -43750 0
75000 -43750 0
75000 -50000 0
81250 -50000 0
75000 -43750 0
81250 -43750 0
81250 -50000 0
87500 -50000 0
81250 -43750 0
87500 -43750 0
75000 -43750 0
81250 -43750 0
75000 -37500 0
81250 -37500 0
118750 -100000 0
125000 -100000 0
118750 -93750 0
125000 -93750 0
118750 -87500 0
125000 -87500 0
118750 -81250 0
125000 -81250 0
100000 -68750 0
106250 -68750 0
100000 -62500 0
106250 -62500 0
106250 -68750 0
112500 -68750 0
106250 -62500 0
112500 -62500 0
118750 -25000 0
125000 -25000 0
118750 -18750 0
125000 -18750 0
118750 -18750 0
125000 -18750 0
118750 -12500 0
125000 -12500 0
118750 -6250 0
125000 -6250 0
118750 0 0
125000 0 0
106250 -37500 0
112500 -37500 0
106250 -31250 0
112500 -31250 0
112500 -37500 0
118750 -37500 0
112500 -31250 0
118750 -31250 0
118750 -37500 0
125000 -37500 0
118750 -31250 0
125000 -31250 0
112500 -31250 0
118750 -31250 0
112500 -25000 0
118750 -25000 0
118750 -31250 0
125000 -31250 0
118750 -25000 0
125000 -25000 0
87500 -50000 0
93750 -50000 0
87500 -43750 0
93750 -43750 0
93750 -50000 0
100000 -50000 0
93750 -43750 0
100000 -43750 0
87500 -43750 0
93750 -43750 0
87500 -37500 0
93750 -37500 0
93750 -43750 0
100000 -43750 0
93750 -37500 0
100000 -37500 0
87500 -37500 0
93750 -37500 0
87500 -31250 0
93750 -31250 0
93750 -37500 0
100000 -37500 0
93750 -31250 0
100000 -31250 0
87500 -31250 0
93750 -31250 0
87500 -25000 0
93750 -25000 0
93750 -31250 0
100000 -31250 0
93750 -25000 0
100000 -25000 0
100000 -87500 0
106250 -87500 0
100000 -81250 0
106250 -81250 0
106250 -87500 0
112500 -87500 0
106250 -81250 0
112500 -81250 0
100000 -81250 0
106250 -81250 0
100000 -75000 0
106250 -75000 0
106250 -81250 0
112500 -81250 0
106250 -75000 0
112500 -75000 0
125000 -100000 0
131250 -100000 0
125000 -93750 0
131250 -93750 0
131250 -100000 0
137500 -100000 0
131250 -93750 0
137500 -93750 0
125000 -93750 0
131250 -93750 0
125000 -87500 0
131250 -87500 0
131250 -93750 0
137500 -93750 0
131250 -87500 0
137500 -87500 0
137500 -100000 0
143750 -100000 0
137500 -93750 0
143750 -93750 0
143750 -100000 0
150000 -100000 0
143750 -93750 0
150000 -93750 0
137500 -93750 0
143750 -93750 0
137500 -87500 0
143750 -87500 0
143750 -93750 0
150000 -93750 0
143750 -87500 0
150000 -87500 0
125000 -87500 0
131250 -87500 0
125000 -81250 0
131250 -81250 0
131250 -87500 0
137500 -87500 0
131250 -81250 0
137500 -81250 0
125000 -81250 0
131250 -81250 0
125000 -75000 0
131250 -75000 0
131250 -81250 0
137500 -81250 0
131250 -75000 0
137500 -75000 0
137500 -87500 0
143750 -87500 0
137500 -81250 0
143750 -81250 0
143750 -87500 0
150000 -87500 0
143750 -81250 0
150000 -81250 0
137500 -81250 0
143750 -81250 0
137500 -75000 0
143750 -75000 0
143750 -81250 0
150000 -81250 0
143750 -75000 0
150000 -75000 0
112500 -75000 0
118750 -75000 0
112500 -68750 0
118750 -68750 0
118750 -75000 0
125000 -75000 0
118750 -68750 0
125000 -68750 0
112500 -68750 0
118750 -68750 0
112500 -62500 0
118750 -62500 0
118750 -68750 0
125000 -68750 0
118750 -62500 0
125000 -62500 0
100000 -62500 0
106250 -62500 0
100000 -56250 0
106250 -56250 0
106250 -62500 0
112500 -62500 0
106250 -56250 0
112500 -56250 0
100000 -56250 0
106250 -56250 0
100000 -50000 0
106250 -50000 0
106250 -56250 0
112500 -56250 0
106250 -50000 0
112500 -50000 0
112500 -62500 0
118750 -62500 0
112500 -56250 0
118750 -56250 0
118750 -62500 0
125000 -62500 0
118750 -56250 0
125000 -56250 0
112500 -56250 0
118750 -56250 0
112500 -50000 0
118750 -50000 0
118750 -56250 0
125000 -56250 0
118750 -50000 0
125000 -50000 0
100000 -25000 0
106250 -25000 0
100000 -18750 0
106250 -18750 0
106250 -25000 0
112500 -25000 0
106250 -18750 0
112500 -18750 0
100000 -18750 0
106250 -18750 0
100000 -12500 0
106250 -12500 0
106250 -18750 0
112500 -18750 0
106250 -12500 0
112500 -12500 0
100000 -12500 0
106250 -12500 0
100000 -6250 0
106250 -6250 0
106250 -12500 0
112500 -12500 0
106250 -6250 0
112500 -6250 0
100000 -6250 0
106250 -6250 0
100000 0 0
106250 0 0
106250 -6250 0
112500 -6250 0
106250 0 0
112500 0 0
150000 -100000 0
156250 -100000 0
150000 -93750 0
156250 -93750 0
156250 -100000 0
162500 -100000 0
156250 -93750 0
162500 -93750 0
150000 -93750 0
156250 -93750 0
150000 -87500 0
156250 -87500 0
156250 -93750 0
162500 -93750 0
156250 -87500 0
162500 -87500 0
150000 -87500 0
156250 -87500 0
150000 -81250 0
156250 -81250 0
156250 -87500 0
162500 -87500 0
156250 -81250 0
162500 -81250 0
150000 -81250 0
156250 -81250 0
150000 -75000 0
156250 -75000 0
156250 -81250 0
162500 -81250 0
156250 -75000 0
162500 -75000 0
100000 -50000 0
106250 -50000 0
100000 -43750 0
106250 -43750 0
106250 -50000 0
112500 -50000 0
106250 -43750 0
112500 -43750 0
100000 -43750 0
106250 -43750 0
100000 -37500 0
106250 -37500 0
106250 -43750 0
112500 -43750 0
106250 -37500 0
112500 -37500 0
137500 -25000 0
143750 -25000 0
137500 -18750 0
143750 -18750 0
143750 -25000 0
150000 -25000 0
143750 -18750 0
150000 -18750 0
137500 -18750 0
143750 -18750 0
137500 -12500 0
143750 -12500 0
143750 -18750 0
150000 -18750 0
143750 -12500 0
150000 -12500 0
125000 -12500 0
131250 -12500 0
125000 -6250 0
131250 -6250 0
131250 -12500 0
137500 -12500 0
131250 -6250 0
137500 -6250 0
125000 -6250 0
131250 -6250 0
125000 0 0
131250 0 0
131250 -6250 0
137500 -6250 0
131250 0 0
137500 0 0
137500 -12500 0
143750 -12500 0
137500 -6250 0
143750 -6250 0
143750 -12500 0
150000 -12500 0
143750 -6250 0
150000 -6250 0
137500 -6250 0
143750 -6250 0
137500 0 0
143750 0 0
143750 -6250 0
150000 -6250 0
143750 0 0
150000 0 0
125000 -37500 0
131250 -37500 0
125000 -31250 0
131250 -31250 0
131250 -37500 0
137500 -37500 0
131250 -31250 0
137500 -31250 0
125000 -31250 0
131250 -31250 0
125000 -25000 0
131250 -25000 0
131250 -31250 0
137500 -31250 0
131250 -25000 0
137500 -25000 0
137500 -37500 0
143750 -37500 0
137500 -31250 0
143750 -31250 0
143750 -37500 0
150000 -37500 0
143750 -31250 0
150000 -31250 0
137500 -31250 0
143750 -31250 0
137500 -25000 0
143750 -25000 0
143750 -31250 0
150000 -31250 0
143750 -25000 0
150000 -25000 0
150000 -25000 0
156250 -25000 0
150000 -18750 0
156250 -18750 0
156250 -25000 0
162500 -25000 0
156250 -18750 0
162500 -18750 0
150000 -18750 0
156250 -18750 0
150000 -12500 0
156250 -12500 0
156250 -18750 0
162500 -18750 0
156250 -12500 0
162500 -12500 0
162500 -25000 0
168750 -25000 0
162500 -18750 0
168750 -18750 0
168750 -25000 0
175000 -25000 0
168750 -18750 0
175000 -18750 0
162500 -18750 0
168750 -18750 0
162500 -12500 0
168750 -12500 0
168750 -18750 0
175000 -18750 0
168750 -12500 0
175000 -12500 0
150000 -12500 0
156250 -12500 0
150000 -6250 0
156250 -6250 0
156250 -12500 0
162500 -12500 0
156250 -6250 0
162500 -6250 0
150000 -6250 0
156250 -6250 0
150000 0 0
156250 0 0
156250 -6250 0
162500 -6250 0
156250 0 0
162500 0 0
0 -100000 0
3125 -100000 0
0 -96875 0
3125 -96875 0
3125 -100000 0
6250 -100000 0
3125 -96875 0
6250 -96875 0
0 -96875 0
3125 -96875 0
0 -93750 0
3125 -93750 0
3125 -96875 0
6250 -96875 0
3125 -93750 0
[...]
POINT_DATA 18272
SCALARS history_field_xz double 1
LOOKUP_TABLE default
-1210.51 -1210.51 -1211.15 -1211.15 -1211.15 -1211.15 -1213.31 -1213.31 -1219.12 -1219.12 -1238.27 -1238.27 -1243.42 -1243.42 -1250.9 -1250.9 -1219.37 -1219.37 -1232.15 -1232.15 -1219.43 -1219.43 -1227.86 -1227.86 -1227.85 -1227.85 -1228.74 -1228.74 -1195.7 -1195.7 -1206.4 -1206.4 -1203.94 -1203.94 -1211.01 -1211.01 -1206.4 -1206.4 -1219.37 -1219.37 -1211.01 -1211.01 -1219.43 -1219.43 -1214.66 -1214.66 -1215.06 -1215.06 -1218.04 -1218.04 -1218.16 -1218.16 -1215.06 -1215.06 -1216.14 -1216.14 -1218.16 -1218.16 -1218.5 -1218.5 -1209.66 -1209.66 -1214.08 -1214.08 -1213.31 -1213.31 -1216.2 -1216.2 -1214.08 -1214.08 -1219.52 -1219.52 -1216.2 -1216.2 -1219.57 -1219.57 -1216.14 -1216.14 -1217.74 -1217.74 -1218.5 -1218.5 -1219 -1219 -1217.74 -1217.74 -1219.58 -1219.58 -1219 -1219 -1219.59 -1219.59 -1219.52 -1219.52 -1225.04 -1225.04 -1219.57 -1219.57 -1222.98 -1222.98 -1225.04 -1225.04 -1229.91 -1229.91 -1222.98 -1222.98 -1225.69 -1225.69 -1219.58 -1219.58 -1221.42 -1221.42 -1219.59 -1219.59 -1220.18 -1220.18 -1221.42 -1221.42 -1223.07 -1223.07 -1220.18 -1220.18 -1220.69 -1220.69 -1223.07 -1223.07 -1224.16 -1224.16 -1220.69 -1220.69 -1221.03 -1221.03 -1224.16 -1224.16 -1224.5 -1224.5 -1221.03 -1221.03 -1221.15 -1221.15 -1134.17 -1134.17 -1151 -1151 -1253.54 -1253.54 -1357.81 -1357.81 -1176.37 -1176.37 -1211.02 -1211.02 -1186.05 -1186.05 -1213.8 -1213.8 -1170.21 -1170.21 -1192.51 -1192.51 -1180.09 -1180.09 -1197.83 -1197.83 -1192.51 -1192.51 -1215.73 -1215.73 -1197.83 -1197.83 -1216.97 -1216.97 -1191 -1191 -1256.6 -1256.6 -1257.39 -1257.39 -1339.15 -1339.15 -1200.65 -1200.65 -1253.61 -1253.61 -1207.17 -1207.17 -1249.89 -1249.89 -1211.02 -1211.02 -1246.55 -1246.55 -1213.8 -1213.8 -1242.82 -1242.82 -1246.55 -1246.55 -1281.95 -1281.95 -1175.03 -1175.03 -1176.31 -1176.31 -1178.86 -1178.86 -1183.03 -1183.03 -1173.4 -1173.4 -1187.2 -1187.2 -1182.25 -1182.25 -1193.12 -1193.12 -1250.52 -1250.52 -1259.93 -1259.93 -1259.93 -1259.93 -1260.58 -1260.58 -1263.28 -1263.28 -1264.94 -1264.94 -1244.24 -1244.24 -1255.92 -1255.92 -1238.27 -1238.27 -1249.69 -1249.69 -1238.27 -1238.27 -1243.87 -1243.87 -1249.69 -1249.69 -1258.63 -1258.63 -1243.87 -1243.87 -1250.52 -1250.52 -1215.73 -1215.73 -1239.34 -1239.34 -1216.97 -1216.97 -1236.53 -1236.53 -1239.34 -1239.34 -1263.08 -1263.08 -1236.53 -1236.53 -1255.83 -1255.83 -1263.08 -1263.08 -1285.36 -1285.36 -1255.83 -1255.83 -1273.31 -1273.31 -1285.36 -1285.36 -1305.33 -1305.33 -1273.31 -1273.31 -1288.97 -1288.97 -1145.39 -1145.39 -1152.28 -1152.28 -1158.96 -1158.96 -1164.7 -1164.7 -1152.28 -1152.28 -1161.86 -1161.86 -1164.7 -1164.7 -1172.56 -1172.56 -1183.19 -1183.19 -1183.77 -1183.77 -1189.73 -1189.73 -1190.3 -1190.3 -1183.77 -1183.77 -1185.89 -1185.89 -1190.3 -1190.3 -1191.94 -1191.94 -1195.19 -1195.19 -1195.65 -1195.65 -1199.74 -1199.74 -1200.1 -1200.1 -1195.65 -1195.65 -1197.01 -1197.01 -1200.1 -1200.1 -1201.19 -1201.19 -1185.89 -1185.89 -1189.18 -1189.18 -1191.94 -1191.94 -1194.79 -1194.79 -1189.18 -1189.18 -1195.7 -1195.7 -1194.79 -1194.79 -1195.7 -1195.7 -1197.01 -1197.01 -1198.96 -1198.96 -1201.19 -1201.19 -1203.18 -1203.18 -1198.96 -1198.96 -1203.94 -1203.94 -1203.18 -1203.18 -1203.94 -1203.94 -1180.26 -1180.26 -1188.6 -1188.6 -1188.59 -1188.59 -1192.79 -1192.79 -1188.6 -1188.6 -1197.87 -1197.87 -1192.79 -1192.79 -1202.8 -1202.8 -1187.2 -1187.2 -1202.06 -1202.06 -1193.12 -1193.12 -1205.42 -1205.42 -1202.06 -1202.06 -1217.87 -1217.87 -1205.42 -1205.42 -1217.97 -1217.97 -1197.87 -1197.87 -1208.16 -1208.16 -1202.8 -1202.8 -1209.86 -1209.86 -1208.16 -1208.16 -1219.12 -1219.12 -1209.86 -1209.86 -1219.12 -1219.12 -1277.41 -1277.41 -1288.39 -1288.39 -1266.54 -1266.54 -1275.66 -1275.66 -1288.39 -1288.39 -1296.28 -1296.28 -1275.66 -1275.66 -1282.32 -1282.32 -1296.28 -1296.28 -1301.27 -1301.27 -1282.32 -1282.32 -1286.29 -1286.29 -1301.27 -1301.27 -1302.95 -1302.95 -1286.29 -1286.29 -1287.68 -1287.68 -1203.45 -1203.45 -1203.89 -1203.89 -1207.42 -1207.42 -1206.23 -1206.23 -1203.89 -1203.89 -1204.64 -1204.64 -1206.23 -1206.23 -1208.38 -1208.38 -1204.64 -1204.64 -1206.09 -1206.09 -1208.38 -1208.38 -1208.07 -1208.07 -1206.09 -1206.09 -1209.66 -1209.66 -1208.07 -1208.07 -1209.66 -1209.66 -1217.87 -1217.87 -1233.9 -1233.9 -1217.97 -1217.97 -1232.25 -1232.25 -1233.9 -1233.9 -1249.55 -1249.55 -1232.25 -1232.25 -1244.24 -1244.24 -1237.4 -1237.4 -1238.13 -1238.13 -1233.31 -1233.31 -1235.81 -1235.81 -1238.13 -1238.13 -1242.54 -1242.54 -1235.81 -1235.81 -1237.87 -1237.87 -1250.9 -1250.9 -1255.99 -1255.99 -1250.9 -1250.9 -1249.49 -1249.49 -1255.99 -1255.99 -1256.57 -1256.57 -1249.49 -1249.49 -1250.09 -1250.09 -1242.54 -1242.54 -1244.33 -1244.33 -1237.87 -1237.87 -1239.38 -1239.38 -1244.33 -1244.33 -1244.54 -1244.54 -1239.38 -1239.38 -1239.86 -1239.86 -1232.15 -1232.15 -1240.01 -1240.01 -1232.15 -1232.15 -1236.27 -1236.27 -1240.01 -1240.01 -1243.42 -1243.42 -1236.27 -1236.27 -1243.42 -1243.42 -1227.86 -1227.86 -1233.73 -1233.73 -1227.86 -1227.86 -1231.62 -1231.62 -1233.73 -1233.73 -1237.4 -1237.4 -1231.62 -1231.62 -1233.31 -1233.31 -1229.91 -1229.91 -1232.82 -1232.82 -1229.91 -1229.91 -1230.01 -1230.01 -1232.82 -1232.82 -1234.47 -1234.47 -1230.01 -1230.01 -1231.27 -1231.27 -1225.69 -1225.69 -1228.15 -1228.15 -1225.69 -1225.69 -1226.97 -1226.97 -1228.15 -1228.15 -1227.85 -1227.85 -1226.97 -1226.97 -1227.85 -1227.85 -1234.47 -1234.47 -1235.47 -1235.47 -1231.27 -1231.27 -1233.14 -1233.14 -1235.47 -1235.47 -1235.95 -1235.95 -1233.14 -1233.14 -1231.79 -1231.79 -32.4708 -32.4708 -32.575 -32.575 -97.2068 -97.2068 -97.5153 -97.5153 -32.575 -32.575 -32.8902 -32.8902 -97.5153 -97.5153 -98.4532 -98.4532 -161.334 -161.334 -161.835 -161.835 -224.47 -224.47 -225.146 -225.146 -161.835 -161.835 -163.358 -163.358 -225.146 -225.146 -227.196 -227.196 -32.8902 -32.8902 -33.4321 -33.4321 -98.4532 -98.4532 -100.043 -100.043 -33.4321 -33.4321 -34.0571 -34.0571 -100.043 -100.043 -102.392 -102.392 -163.358 -163.358 -165.978 -165.978 -227.196 -227.196 -230.696 -230.696 -165.978 -165.978 -169.783 -169.783 -230.696 -230.696 -235.902 -235.902 -286.272 -286.272 -287.098 -287.098 -346.437 -346.437 -347.389 -347.389 -287.098 -287.098 -289.602 -289.602 -347.389 -347.389 -350.273 -350.273 -404.73 -404.73 -405.76 -405.76 -460.949 -460.949 -462.076 -462.076 -405.76 -405.76 -408.942 -408.942 -462.076 -462.076 -465.286 -465.286 -289.602 -289.602 -293.859 -293.859 -350.273 -350.273 -355.16 -355.16 -293.859 -293.859 -299.89 -299.89 -355.16 -355.16 -362.152 -362.152 -408.942 -408.942 -414.371 -414.371 -465.286 -465.286 -471.224 -471.224 -414.371 -414.371 -422.188 -422.188 -471.224 -471.224 -479.742 -479.742 -34.0571 -34.0571 -34.7195 -34.7195 -102.392 -102.392 -104.078 -104.078 -169.783 -169.783 -177.049 -177.049 -235.902 -235.902 -242.125 -242.125 -242.125 -242.125 -250.211 -250.211 -299.89 -299.89 -307.833 -307.833 -362.152 -362.152 -371.395 -371.395 -307.833 -307.833 -317.878 -317.878 -371.395 -371.395 -383.107 -383.107 -422.188 -422.188 -432.522 -432.522 -479.742 -479.742 -490.94 -490.94 -432.522 -432.522 -445.593 -445.593 -490.94 -490.94 -505.055 -505.055 -317.878 -317.878 -330.299 -330.299 -383.107 -383.107 -397.619 -397.619 -397.619 -397.619 -415.334 -415.334 -445.593 -445.593 -461.717 -461.717 -505.055 -505.055 -522.391 -522.391 -461.717 -461.717 -481.311 -481.311 -522.391 -522.391 -543.331 -543.331 -516.615 -516.615 -515.29 -515.29 -515.29 -515.29 -519.033 -519.033 -564.733 -564.733 -570.665 -570.665 -616.766 -616.766 -619.979 -619.979 -519.033 -519.033 -525.592 -525.592 -570.665 -570.665 -577.397 -577.397 -525.592 -525.592 -534.636 -534.636 -577.397 -577.397 -586.75 -586.75 -619.979 -619.979 -626.533 -626.533 -626.533 -626.533 -635.991 -635.991 -1120.01 -1120.01 -1162.85 -1162.85 -983.929 -983.929 -984.885 -984.885 -1005.11 -1005.11 -1005.67 -1005.67 -1024.33 -1024.33 -1025.77 -1025.77 -534.636 -534.636 -546.465 -546.465 -586.75 -586.75 -598.977 -598.977 -546.465 -546.465 -561.322 -561.322 -598.977 -598.977 -614.297 -614.297 -635.991 -635.991 -648.409 -648.409 -648.409 -648.409 -663.945 -663.945 -561.322 -561.322 -579.489 -579.489 -614.297 -614.297 -632.962 -632.962 -579.489 -579.489 -601.306 -601.306 -632.962 -632.962 -655.25 -655.25 -663.945 -663.945 -682.811 -682.811 -682.811 -682.811 -705.275 -705.275 -1035.13 -1035.13 -1045.9 -1045.9 -481.311 -481.311 -504.968 -504.968 -543.331 -543.331 -568.531 -568.531 -568.531 -568.531 -595.826 -595.826 -595.826 -595.826 -631.855 -631.855 -631.855 -631.855 -675.937 -675.937 -601.306 -601.306 -626.937 -626.937 -655.25 -655.25 -681.558 -681.558 -626.937 -626.937 -657.31 -657.31 -681.558 -681.558 -712.382 -712.382 -705.275 -705.275 -731.663 -731.663 -731.663 -731.663 -762.344 -762.344 -657.31 -657.31 -693.286 -693.286 -712.382 -712.382 -748.103 -748.103 -693.286 -693.286 -735.747 -735.747 -748.103 -748.103 -789.132 -789.132 -762.344 -762.344 -797.857 -797.857 -797.857 -797.857 -836.763 -836.763 -703.543 -703.543 -705.25 -705.25 -744.753 -744.753 -746.114 -746.114 -705.25 -705.25 -709.579 -709.579 -746.114 -746.114 -750.155 -750.155 -1061.78 -1061.78 -1085.01 -1085.01 -1080.68 -1080.68 -1112.46 -1112.46 -735.747 -735.747 -782.242 -782.242 -789.132 -789.132 -838.241 -838.241 -782.242 -782.242 -839.456 -839.456 -838.241 -838.241 -892.146 -892.146 -839.456 -839.456 -903.36 -903.36 -892.146 -892.146 -953.428 -953.428 -903.36 -903.36 -979.906 -979.906 -1068.68 -1068.68 -1095.94 -1095.94 -1085.01 -1085.01 -1109.8 -1109.8 -1095.94 -1095.94 -1125.32 -1125.32 -1109.8 -1109.8 -1136.45 -1136.45 -1096.99 -1096.99 -1133.87 -1133.87 -1112.46 -1112.46 -1146.29 -1146.29 -1133.87 -1133.87 -1172.99 -1172.99 -1146.29 -1146.29 -1181.59 -1181.59 -1268.56 -1268.56 -1388.01 -1388.01 -1289.34 -1289.34 -1391.48 -1391.48 -1174.82 -1174.82 -1240.24 -1240.24 -1190.25 -1190.25 -1246.87 -1246.87 -1378.78 -1378.78 -1450.91 -1450.91 -1371.24 -1371.24 -1432.51 -1432.51 -1357.81 -1357.81 -1417.32 -1417.32 -1357.81 -1357.81 -1401.79 -1401.79 -1339.15 -1339.15 -1388.59 -1388.59 -1339.15 -1339.15 -1373.83 -1373.83 -1326.79 -1326.79 -1362.43 -1362.43 -1318.61 -1318.61 -1350.01 -1350.01 -1362.43 -1362.43 -1396.02 -1396.02 -1350.01 -1350.01 -1380.17 -1380.17 -1380.17 -1380.17 -1409.13 -1409.13 -1388.87 -1388.87 -1392.87 -1392.87 -925.876 -925.876 -1015.62 -1015.62 -1015.62 -1015.62 -1120.82 -1120.82 -1376.9 -1376.9 -1523.41 -1523.41 -1352.38 -1352.38 -1357.7 -1357.7 -1371.51 -1371.51 -1376.64 -1376.64 -1357.7 -1357.7 -1361.32 -1361.32 -1388.01 -1388.01 -1513.84 -1513.84 -1391.48 -1391.48 -1498.84 -1498.84 -1415.93 -1415.93 -1416.83 -1416.83 -1395.37 -1395.37 -1397.21 -1397.21 -1642.9 -1642.9 -1770.9 -1770.9 -1670.42 -1670.42 -1755.9 -1755.9 -1626.33 -1626.33 -1702.99 -1702.99 -1376.64 -1376.64 -1379.24 -1379.24 -1361.32 -1361.32 -1363.67 -1363.67 -1379.24 -1379.24 -1379.78 -1379.78 -1363.67 -1363.67 -1364.45 -1364.45 -1702.99 -1702.99 -1771.94 -1771.94 -1655.72 -1655.72 -1715.64 -1715.64 -1715.64 -1715.64 -1772.07 -1772.07 -1666.43 -1666.43 -1713.81 -1713.81 -1772.07 -1772.07 -1814.63 -1814.63 -1713.81 -1713.81 -1754.52 -1754.52 -1754.52 -1754.52 -1790.85 -1790.85 -1664.29 -1664.29 -1700.4 -1700.4 -1700.4 -1700.4 -1730.48 -1730.48 -1652.48 -1652.48 -1677.3 -1677.3 -1790.85 -1790.85 -1813.73 -1813.73 -1730.48 -1730.48 -1754.03 -1754.03 -1677.3 -1677.3 -1700.53 -1700.53 -1754.03 -1754.03 -1773.46 -1773.46 -1700.53 -1700.53 -1715.99 -1715.99 -1773.46 -1773.46 -1782.38 -1782.38 -1715.99 -1715.99 -1725.43 -1725.43 -1782.38 -1782.38 -1785.66 -1785.66 -1725.43 -1725.43 -1726.01 -1726.01 -783.054 -783.054 -784.349 -784.349 -818.755 -818.755 -819.999 -819.999 -784.349 -784.349 -788.228 -788.228 -819.999 -819.999 -823.733 -823.733 -709.579 -709.579 -716.223 -716.223 -750.155 -750.155 -756.803 -756.803 -716.223 -716.223 -725.651 -725.651 -756.803 -756.803 -766.116 -766.116 -788.228 -788.228 -794.693 -794.693 -823.733 -823.733 -829.975 -829.975 -794.693 -794.693 -803.781 -803.781 -829.975 -829.975 -838.754 -838.754 -725.651 -725.651 -737.985 -737.985 -766.116 -766.116 -778.228 -778.228 -737.985 -737.985 -753.341 -753.341 -778.228 -778.228 -793.253 -793.253 -803.781 -803.781 -815.564 -815.564 -838.754 -838.754 -850.117 -850.117 -815.564 -815.564 -830.133 -830.133 -850.117 -850.117 -864.126 -864.126 -1652.62 -1652.62 -1664.62 -1664.62 -753.341 -753.341 -771.868 -771.868 -793.253 -793.253 -811.318 -811.318 -771.868 -771.868 -793.748 -793.748 -811.318 -811.318 -832.562 -832.562 -1664.62 -1664.62 -1674.83 -1674.83 -830.133 -830.133 -847.591 -847.591 -864.126 -864.126 -880.869 -880.869 -847.591 -847.591 -868.044 -868.044 -880.869 -880.869 -900.421 -900.421 -793.748 -793.748 -819.192 -819.192 -832.562 -832.562 -857.144 -857.144 -819.192 -819.192 -848.44 -848.44 -857.144 -857.144 -885.23 -885.23 -868.044 -868.044 -891.596 -891.596 -900.421 -900.421 -922.848 -922.848 -891.596 -891.596 -918.343 -918.343 -922.848 -922.848 -948.176 -948.176 -848.44 -848.44 -881.769 -881.769 -885.23 -885.23 -916.953 -916.953 -881.769 -881.769 -919.078 -919.078 -916.953 -916.953 -952.434 -952.434 -918.343 -918.343 -948.4 -948.4 -948.176 -948.176 -976.394 -976.394 -948.4 -948.4 -981.933 -981.933 -976.394 -976.394 -1007.74 -1007.74 -919.078 -919.078 -960.751 -960.751 -952.434 -952.434 -991.75 -991.75 -960.751 -960.751 -1007.42 -1007.42 -991.75 -991.75 -1035.16 -1035.16 -981.933 -981.933 -1018.84 -1018.84 -1007.74 -1007.74 -1042.96 -1042.96 -1018.84 -1018.84 -1058.39 -1058.39 -1042.96 -1042.96 -1080.32 -1080.32 -1007.42 -1007.42 -1058.36 -1058.36 -1035.16 -1035.16 -1083.51 -1083.51 -1058.36 -1058.36 -1114.53 -1114.53 -1083.51 -1083.51 -1134.8 -1134.8 -851.972 -851.972 -853.161 -853.161 -882.814 -882.814 -883.943 -883.943 -853.161 -853.161 -856.738 -856.738 -883.943 -883.943 -887.332 -887.332 -911.448 -911.448 -912.444 -912.444 -937.657 -937.657 -939.171 -939.171 -912.444 -912.444 -915.632 -915.632 -939.171 -939.171 -941.553 -941.553 -856.738 -856.738 -862.725 -862.725 -887.332 -887.332 -893.039 -893.039 -862.725 -862.725 -871.148 -871.148 -893.039 -893.039 -901.08 -901.08 -915.632 -915.632 -920.972 -920.972 -941.553 -941.553 -946.604 -946.604 -920.972 -920.972 -928.685 -928.685 -946.604 -946.604 -953.849 -953.849 -965.06 -965.06 -970.608 -970.608 -988.882 -988.882 -992.911 -992.911 -970.608 -970.608 -976.475 -976.475 -992.911 -992.911 -999.529 -999.529 -871.148 -871.148 -882.031 -882.031 -901.08 -901.08 -911.465 -911.465 -882.031 -882.031 -895.396 -895.396 -911.465 -911.465 -924.157 -924.157 -928.685 -928.685 -938.577 -938.577 -953.849 -953.849 -963.891 -963.891 -938.577 -938.577 -950.65 -950.65 -963.891 -963.891 -974.839 -974.839 -895.396 -895.396 -911.312 -911.312 -924.157 -924.157 -939.087 -939.087 -911.312 -911.312 -929.93 -929.93 -939.087 -939.087 -956.505 -956.505 -950.65 -950.65 -964.742 -964.742 -974.839 -974.839 -988.439 -988.439 -964.742 -964.742 -980.006 -980.006 -988.439 -988.439 -1004.25 -1004.25 -1145.6 -1145.6 -1156.11 -1156.11 -1153.99 -1153.99 -1160.43 -1160.43 -1156.11 -1156.11 -1160.04 -1160.04 -1160.43 -1160.43 -1167.09 -1167.09 -1151 -1151 -1157.7 -1157.7 -1151 -1151 -1163.53 -1163.53 -1157.7 -1157.7 -1170.21 -1170.21 -1163.53 -1163.53 -1170.21 -1170.21 -1160.04 -1160.04 -1167.98 -1167.98 -1167.09 -1167.09 -1171.78 -1171.78 -1167.98 -1167.98 -1180.09 -1180.09 -1171.78 -1171.78 -1180.09 -1180.09 -1041.79 -1041.79 -1042.43 -1042.43 -1057.48 -1057.48 -1058.06 -1058.06 -1042.43 -1042.43 -1043.96 -1043.96 -1058.06 -1058.06 -1059.99 -1059.99 -1071.94 -1071.94 -1072.54 -1072.54 -1085.23 -1085.23 -1085.79 -1085.79 -1072.54 -1072.54 -1074.36 -1074.36 -1085.79 -1085.79 -1087.49 -1087.49 -1043.96 -1043.96 -1047.88 -1047.88 -1059.99 -1059.99 -1063.28 -1063.28 -1047.88 -1047.88 -1052.92 -1052.92 -1063.28 -1063.28 -1067.97 -1067.97 -1074.36 -1074.36 -1077.42 -1077.42 -1087.49 -1087.49 -1090.31 -1090.31 -1077.42 -1077.42 -1081.73 -1081.73 -1090.31 -1090.31 -1094.27 -1094.27 -1097.4 -1097.4 -1097.92 -1097.92 -1108.52 -1108.52 -1109.01 -1109.01 -1097.92 -1097.92 -1099.48 -1099.48 -1109.01 -1109.01 -1110.45 -1110.45 -1118.67 -1118.67 -1119.12 -1119.12 -1127.9 -1127.9 -1128.33 -1128.33 -1119.12 -1119.12 -1120.5 -1120.5 -1128.33 -1128.33 -1129.61 -1129.61 -1099.48 -1099.48 -1102.06 -1102.06 -1110.45 -1110.45 -1112.79 -1112.79 -1102.06 -1102.06 -1105.67 -1105.67 -1112.79 -1112.79 -1116.05 -1116.05 -1120.5 -1120.5 -1122.7 -1122.7 -1129.61 -1129.61 -1132 -1132 -1122.7 -1122.7 -1125.37 -1125.37 -1132 -1132 -1134.86 -1134.86 -1052.92 -1052.92 -1059.32 -1059.32 -1067.97 -1067.97 -1073.96 -1073.96 -1059.32 -1059.32 -1067.26 -1067.26 -1073.96 -1073.96 -1081.2 -1081.2 -1081.73 -1081.73 -1087.27 -1087.27 -1094.27 -1094.27 -1099.36 -1099.36 -1087.27 -1087.27 -1094.03 -1094.03 -1099.36 -1099.36 -1105.6 -1105.6 -1067.26 -1067.26 -1076.23 -1076.23 -1081.2 -1081.2 -1089.69 -1089.69 -1076.23 -1076.23 -1087.16 -1087.16 -1089.69 -1089.69 -1099.35 -1099.35 -1094.03 -1094.03 -1101.88 -1101.88 -1105.6 -1105.6 -1113.28 -1113.28 -1101.88 -1101.88 -1110.37 -1110.37 -1113.28 -1113.28 -1121.5 -1121.5 -929.93 -929.93 -951.18 -951.18 -956.505 -956.505 -977.219 -977.219 -951.18 -951.18 -975.097 -975.097 -977.219 -977.219 -999.242 -999.242 -975.097 -975.097 -1001.55 -1001.55 -999.242 -999.242 -1024.16 -1024.16 -1001.55 -1001.55 -1029.92 -1029.92 -1024.16 -1024.16 -1051.69 -1051.69 -1105.67 -1105.67 -1110.31 -1110.31 -1116.05 -1116.05 -1120.2 -1120.2 -1110.31 -1110.31 -1116.01 -1116.01 -1120.2 -1120.2 -1125.31 -1125.31 -1125.37 -1125.37 -1129.29 -1129.29 -1134.86 -1134.86 -1135.09 -1135.09 -1129.29 -1129.29 -1133.62 -1133.62 -1135.09 -1135.09 -1143.8 -1143.8 -1116.01 -1116.01 -1122.67 -1122.67 -1125.31 -1125.31 -1131.33 -1131.33 -1122.67 -1122.67 -1134.17 -1134.17 -1131.33 -1131.33 -1134.17 -1134.17 -1133.62 -1133.62 -1139.08 -1139.08 -1143.8 -1143.8 -1144.84 -1144.84 -1139.08 -1139.08 -1145.6 -1145.6 -1144.84 -1144.84 -1153.99 -1153.99 -1125.32 -1125.32 -1156.11 -1156.11 -1136.45 -1136.45 -1164.79 -1164.79 -1156.11 -1156.11 -1191 -1191 -1164.79 -1164.79 -1191 -1191 -1022.76 -1022.76 -1038.98 -1038.98 -1042.08 -1042.08 -1056.55 -1056.55 -1038.98 -1038.98 -1057.1 -1057.1 -1056.55 -1056.55 -1073.26 -1073.26 -1058.31 -1058.31 -1072.31 -1072.31 -1073.98 -1073.98 -1086.32 -1086.32 -1072.31 -1072.31 -1087.58 -1087.58 -1086.32 -1086.32 -1100.41 -1100.41 -1057.1 -1057.1 -1077.58 -1077.58 -1073.26 -1073.26 -1091.59 -1091.59 -1077.58 -1077.58 -1098.93 -1098.93 -1091.59 -1091.59 -1111.38 -1111.38 -1087.58 -1087.58 -1104.37 -1104.37 -1100.41 -1100.41 -1115.81 -1115.81 -1104.37 -1104.37 -1122.52 -1122.52 -1115.81 -1115.81 -1132.43 -1132.43 -1098.93 -1098.93 -1121.86 -1121.86 -1111.38 -1111.38 -1132.41 -1132.41 -1121.86 -1121.86 -1146.23 -1146.23 -1132.41 -1132.41 -1154.65 -1154.65 -1122.51 -1122.51 -1141.81 -1141.81 -1132.43 -1132.43 -1150.31 -1150.31 -1141.81 -1141.81 -1161.96 -1161.96 -1150.31 -1150.31 -1168.79 -1168.79 -1146.23 -1146.23 -1171.58 -1171.58 -1154.65 -1154.65 -1178.25 -1178.25 -1171.58 -1171.58 -1200.65 -1200.65 -1178.25 -1178.25 -1200.65 -1200.65 -1161.96 -1161.96 -1183.12 -1183.12 -1168.79 -1168.79 -1186.31 -1186.31 -1183.12 -1183.12 -1207.17 -1207.17 -1186.31 -1186.31 -1207.17 -1207.17 -1060.63 -1060.63 -1133.77 -1133.77 -1092.68 -1092.68 -1157.72 -1157.72 -1133.77 -1133.77 -1213.33 -1213.33 -1157.72 -1157.72 -1229.2 -1229.2 -1213.33 -1213.33 -1299.77 -1299.77 -1229.2 -1229.2 -1305.66 -1305.66 -1299.77 -1299.77 -1390.12 -1390.12 -1305.66 -1305.66 -1385.49 -1385.49 -1149.82 -1149.82 -1199.63 -1199.63 -1162.85 -1162.85 -1207.96 -1207.96 -1199.63 -1199.63 -1253.54 -1253.54 -1207.96 -1207.96 -1253.54 -1253.54 -1240.24 -1240.24 -1308.32 -1308.32 -1246.87 -1246.87 -1309.08 -1309.08 -1308.32 -1308.32 -1378.78 -1378.78 -1309.08 -1309.08 -1371.24 -1371.24 -1390.12 -1390.12 -1483.38 -1483.38 -1385.49 -1385.49 -1467.01 -1467.01 -1483.38 -1483.38 -1577.99 -1577.99 -1467.01 -1467.01 -1547.62 -1547.62 -1472.77 -1472.77 -1526.31 -1526.31 -1450.82 -1450.82 -1497.7 -1497.7 -1526.31 -1526.31 -1577.11 -1577.11 -1497.7 -1497.7 -1540.5 -1540.5 -1431.04 -1431.04 -1472 