# vtk DataFile Version 3.0
#This file was generated by the deal.II library on 2016/5/13 at 16:44:27
ASCII
DATASET UNSTRUCTURED_GRID

POINTS 52508 double
187500 -87500 0
200000 -87500 0
187500 -75000 0
200000 -75000 0
187500 -62500 0
200000 -62500 0
187500 -50000 0
200000 -50000 0
175000 -50000 0
187500 -50000 0
175000 -37500 0
187500 -37500 0
187500 -50000 0
200000 -50000 0
187500 -37500 0
200000 -37500 0
131250 -81250 0
137500 -81250 0
131250 -75000 0
137500 -75000 0
137500 -81250 0
143750 -81250 0
137500 -75000 0
143750 -75000 0
168750 -12500 0
175000 -12500 0
168750 -6250 0
175000 -6250 0
137500 -68750 0
143750 -68750 0
137500 -62500 0
143750 -62500 0
131250 -56250 0
137500 -56250 0
131250 -50000 0
137500 -50000 0
137500 -62500 0
143750 -62500 0
137500 -56250 0
143750 -56250 0
175000 -100000 0
181250 -100000 0
175000 -93750 0
181250 -93750 0
181250 -93750 0
187500 -93750 0
181250 -87500 0
187500 -87500 0
193750 -100000 0
200000 -100000 0
193750 -93750 0
200000 -93750 0
187500 -93750 0
193750 -93750 0
187500 -87500 0
193750 -87500 0
193750 -93750 0
200000 -93750 0
193750 -87500 0
200000 -87500 0
181250 -87500 0
187500 -87500 0
181250 -81250 0
187500 -81250 0
175000 -81250 0
181250 -81250 0
175000 -75000 0
181250 -75000 0
181250 -81250 0
187500 -81250 0
181250 -75000 0
187500 -75000 0
162500 -25000 0
168750 -25000 0
162500 -18750 0
168750 -18750 0
168750 -25000 0
175000 -25000 0
168750 -18750 0
175000 -18750 0
162500 -18750 0
168750 -18750 0
162500 -12500 0
168750 -12500 0
168750 -18750 0
175000 -18750 0
168750 -12500 0
175000 -12500 0
175000 -75000 0
181250 -75000 0
175000 -68750 0
181250 -68750 0
181250 -75000 0
187500 -75000 0
181250 -68750 0
187500 -68750 0
175000 -68750 0
181250 -68750 0
175000 -62500 0
181250 -62500 0
181250 -68750 0
187500 -68750 0
181250 -62500 0
187500 -62500 0
156250 -37500 0
162500 -37500 0
156250 -31250 0
162500 -31250 0
162500 -37500 0
168750 -37500 0
162500 -31250 0
168750 -31250 0
168750 -37500 0
175000 -37500 0
168750 -31250 0
175000 -31250 0
162500 -31250 0
168750 -31250 0
162500 -25000 0
168750 -25000 0
175000 -37500 0
181250 -37500 0
175000 -31250 0
181250 -31250 0
181250 -37500 0
187500 -37500 0
181250 -31250 0
187500 -31250 0
175000 -31250 0
181250 -31250 0
175000 -25000 0
181250 -25000 0
181250 -31250 0
187500 -31250 0
181250 -25000 0
187500 -25000 0
187500 -25000 0
193750 -25000 0
187500 -18750 0
193750 -18750 0
150000 -62500 0
156250 -62500 0
150000 -56250 0
156250 -56250 0
156250 -62500 0
162500 -62500 0
156250 -56250 0
162500 -56250 0
150000 -56250 0
156250 -56250 0
150000 -50000 0
156250 -50000 0
156250 -56250 0
162500 -56250 0
156250 -50000 0
162500 -50000 0
162500 -62500 0
168750 -62500 0
162500 -56250 0
168750 -56250 0
168750 -62500 0
175000 -62500 0
168750 -56250 0
175000 -56250 0
162500 -56250 0
168750 -56250 0
162500 -50000 0
168750 -50000 0
168750 -56250 0
175000 -56250 0
168750 -50000 0
175000 -50000 0
187500 -75000 0
193750 -75000 0
187500 -68750 0
193750 -68750 0
193750 -75000 0
200000 -75000 0
193750 -68750 0
200000 -68750 0
187500 -68750 0
193750 -68750 0
187500 -62500 0
193750 -62500 0
193750 -68750 0
200000 -68750 0
193750 -62500 0
200000 -62500 0
175000 -62500 0
181250 -62500 0
175000 -56250 0
181250 -56250 0
181250 -62500 0
187500 -62500 0
181250 -56250 0
187500 -56250 0
175000 -56250 0
181250 -56250 0
175000 -50000 0
181250 -50000 0
181250 -56250 0
187500 -56250 0
181250 -50000 0
187500 -50000 0
150000 -50000 0
156250 -50000 0
150000 -43750 0
156250 -43750 0
156250 -50000 0
162500 -50000 0
156250 -43750 0
162500 -43750 0
150000 -43750 0
156250 -43750 0
150000 -37500 0
156250 -37500 0
156250 -43750 0
162500 -43750 0
156250 -37500 0
162500 -37500 0
162500 -50000 0
168750 -50000 0
162500 -43750 0
168750 -43750 0
168750 -50000 0
175000 -50000 0
168750 -43750 0
175000 -43750 0
162500 -43750 0
168750 -43750 0
162500 -37500 0
168750 -37500 0
168750 -43750 0
175000 -43750 0
168750 -37500 0
175000 -37500 0
187500 -37500 0
193750 -37500 0
187500 -31250 0
193750 -31250 0
193750 -37500 0
200000 -37500 0
193750 -31250 0
200000 -31250 0
187500 -31250 0
193750 -31250 0
187500 -25000 0
193750 -25000 0
193750 -31250 0
200000 -31250 0
193750 -25000 0
200000 -25000 0
0 -100000 0
3125 -100000 0
0 -96875 0
3125 -96875 0
0 -93750 0
3125 -93750 0
0 -90625 0
3125 -90625 0
12500 -100000 0
15625 -100000 0
12500 -96875 0
15625 -96875 0
15625 -100000 0
18750 -100000 0
15625 -96875 0
18750 -96875 0
15625 -93750 0
18750 -93750 0
15625 -90625 0
18750 -90625 0
40625 -78125 0
43750 -78125 0
40625 -75000 0
43750 -75000 0
43750 -78125 0
46875 -78125 0
43750 -75000 0
46875 -75000 0
40625 -75000 0
43750 -75000 0
40625 -71875 0
43750 -71875 0
43750 -75000 0
46875 -75000 0
43750 -71875 0
46875 -71875 0
40625 -65625 0
43750 -65625 0
40625 -62500 0
43750 -62500 0
43750 -65625 0
46875 -65625 0
43750 -62500 0
46875 -62500 0
53125 -100000 0
56250 -100000 0
53125 -96875 0
56250 -96875 0
81250 -100000 0
84375 -100000 0
81250 -96875 0
84375 -96875 0
81250 -84375 0
84375 -84375 0
81250 -81250 0
84375 -81250 0
84375 -84375 0
87500 -84375 0
84375 -81250 0
87500 -81250 0
78125 -81250 0
81250 -81250 0
78125 -78125 0
81250 -78125 0
81250 -81250 0
84375 -81250 0
81250 -78125 0
84375 -78125 0
106250 -81250 0
109375 -81250 0
106250 -78125 0
109375 -78125 0
131250 -100000 0
134375 -100000 0
131250 -96875 0
134375 -96875 0
131250 -96875 0
134375 -96875 0
131250 -93750 0
134375 -93750 0
140625 -100000 0
143750 -100000 0
140625 -96875 0
143750 -96875 0
140625 -96875 0
143750 -96875 0
140625 -93750 0
143750 -93750 0
143750 -100000 0
146875 -100000 0
143750 -96875 0
146875 -96875 0
143750 -96875 0
146875 -96875 0
143750 -93750 0
146875 -93750 0
140625 -93750 0
143750 -93750 0
140625 -90625 0
143750 -90625 0
140625 -90625 0
143750 -90625 0
140625 -87500 0
143750 -87500 0
143750 -93750 0
146875 -93750 0
143750 -90625 0
146875 -90625 0
143750 -90625 0
146875 -90625 0
143750 -87500 0
146875 -87500 0
146875 -90625 0
150000 -90625 0
146875 -87500 0
150000 -87500 0
134375 -87500 0
137500 -87500 0
134375 -84375 0
137500 -84375 0
131250 -84375 0
134375 -84375 0
131250 -81250 0
134375 -81250 0
134375 -84375 0
137500 -84375 0
134375 -81250 0
137500 -81250 0
128125 -81250 0
131250 -81250 0
128125 -78125 0
131250 -78125 0
128125 -78125 0
131250 -78125 0
128125 -75000 0
131250 -75000 0
93750 -56250 0
96875 -56250 0
93750 -53125 0
96875 -53125 0
96875 -56250 0
100000 -56250 0
96875 -53125 0
100000 -53125 0
93750 -53125 0
96875 -53125 0
93750 -50000 0
96875 -50000 0
96875 -53125 0
100000 -53125 0
96875 -50000 0
100000 -50000 0
137500 -87500 0
140625 -87500 0
137500 -84375 0
140625 -84375 0
140625 -87500 0
143750 -87500 0
140625 -84375 0
143750 -84375 0
137500 -84375 0
140625 -84375 0
137500 -81250 0
140625 -81250 0
140625 -84375 0
143750 -84375 0
140625 -81250 0
143750 -81250 0
143750 -87500 0
146875 -87500 0
143750 -84375 0
146875 -84375 0
146875 -87500 0
150000 -87500 0
146875 -84375 0
150000 -84375 0
143750 -84375 0
146875 -84375 0
143750 -81250 0
146875 -81250 0
68750 -50000 0
71875 -50000 0
68750 -46875 0
71875 -46875 0
71875 -50000 0
75000 -50000 0
71875 -46875 0
75000 -46875 0
68750 -46875 0
71875 -46875 0
68750 -43750 0
71875 -43750 0
71875 -46875 0
75000 -46875 0
71875 -43750 0
75000 -43750 0
143750 -81250 0
146875 -81250 0
143750 -78125 0
146875 -78125 0
143750 -78125 0
146875 -78125 0
143750 -75000 0
146875 -75000 0
121875 -75000 0
125000 -75000 0
121875 -71875 0
125000 -71875 0
109375 -59375 0
112500 -59375 0
109375 -56250 0
112500 -56250 0
112500 -59375 0
115625 -59375 0
112500 -56250 0
115625 -56250 0
115625 -59375 0
118750 -59375 0
115625 -56250 0
118750 -56250 0
118750 -59375 0
121875 -59375 0
118750 -56250 0
121875 -56250 0
121875 -59375 0
125000 -59375 0
121875 -56250 0
125000 -56250 0
140625 -6250 0
143750 -6250 0
140625 -3125 0
143750 -3125 0
140625 -3125 0
143750 -3125 0
140625 0 0
143750 0 0
143750 -6250 0
146875 -6250 0
143750 -3125 0
146875 -3125 0
143750 -3125 0
146875 -3125 0
143750 0 0
146875 0 0
75000 -50000 0
78125 -50000 0
75000 -46875 0
78125 -46875 0
78125 -50000 0
81250 -50000 0
78125 -46875 0
81250 -46875 0
75000 -46875 0
78125 -46875 0
75000 -43750 0
78125 -43750 0
78125 -46875 0
81250 -46875 0
78125 -43750 0
81250 -43750 0
81250 -50000 0
84375 -50000 0
81250 -46875 0
84375 -46875 0
84375 -50000 0
87500 -50000 0
84375 -46875 0
87500 -46875 0
81250 -46875 0
84375 -46875 0
81250 -43750 0
84375 -43750 0
84375 -46875 0
87500 -46875 0
84375 -43750 0
87500 -43750 0
81250 -43750 0
84375 -43750 0
81250 -40625 0
84375 -40625 0
84375 -43750 0
87500 -43750 0
84375 -40625 0
87500 -40625 0
81250 -40625 0
84375 -40625 0
81250 -37500 0
84375 -37500 0
84375 -40625 0
87500 -40625 0
84375 -37500 0
87500 -37500 0
112500 -100000 0
115625 -100000 0
112500 -96875 0
115625 -96875 0
115625 -100000 0
118750 -100000 0
115625 -96875 0
118750 -96875 0
112500 -96875 0
115625 -96875 0
112500 -93750 0
115625 -93750 0
115625 -96875 0
118750 -96875 0
115625 -93750 0
118750 -93750 0
112500 -93750 0
115625 -93750 0
112500 -90625 0
115625 -90625 0
115625 -93750 0
118750 -93750 0
115625 -90625 0
118750 -90625 0
112500 -90625 0
115625 -90625 0
112500 -87500 0
115625 -87500 0
115625 -90625 0
118750 -90625 0
115625 -87500 0
118750 -87500 0
118750 -93750 0
121875 -93750 0
118750 -90625 0
121875 -90625 0
121875 -93750 0
125000 -93750 0
121875 -90625 0
125000 -90625 0
118750 -90625 0
121875 -90625 0
118750 -87500 0
121875 -87500 0
121875 -90625 0
125000 -90625 0
121875 -87500 0
125000 -87500 0
112500 -87500 0
115625 -87500 0
112500 -84375 0
115625 -84375 0
115625 -87500 0
118750 -87500 0
115625 -84375 0
118750 -84375 0
112500 -84375 0
115625 -84375 0
112500 -81250 0
115625 -81250 0
115625 -84375 0
118750 -84375 0
115625 -81250 0
118750 -81250 0
112500 -81250 0
115625 -81250 0
112500 -78125 0
115625 -78125 0
115625 -81250 0
118750 -81250 0
115625 -78125 0
118750 -78125 0
112500 -78125 0
115625 -78125 0
112500 -75000 0
115625 -75000 0
115625 -78125 0
118750 -78125 0
115625 -75000 0
118750 -75000 0
118750 -81250 0
121875 -81250 0
[...]
POINT_DATA 52508
SCALARS history_field_xz double 1
LOOKUP_TABLE default
-2.23586e+07 -2.23586e+07 -1.818e+07 -1.818e+07 -1.18647e+07 -1.18647e+07 -7.5265e+06 -7.5265e+06 -4.20993e+06 -4.20993e+06 8.63253e+06 8.63253e+06 5.0773e+06 5.0773e+06 1.85914e+07 1.85914e+07 1.272e+08 1.272e+08 9.12157e+07 9.12157e+07 9.09587e+07 9.09587e+07 1.05594e+08 1.05594e+08 -4.64073e+07 -4.64073e+07 -5.74994e+07 -5.74994e+07 5.66821e+07 5.66821e+07 4.31696e+07 4.31696e+07 3.25229e+07 3.25229e+07 3.08088e+07 3.08088e+07 4.4534e+07 4.4534e+07 4.33801e+07 4.33801e+07 1.29211e+07 1.29211e+07 3.72542e+06 3.72542e+06 1.67441e+07 1.67441e+07 -1.79277e+07 -1.79277e+07 -3.6378e+07 -3.6378e+07 -5.57291e+07 -5.57291e+07 -3.46245e+07 -3.46245e+07 -2.39692e+07 -2.39692e+07 -4.11904e+07 -4.11904e+07 -3.05388e+07 -3.05388e+07 -3.053e+07 -3.053e+07 -4.5585e+07 -4.5585e+07 1.65172e+07 1.65172e+07 5.02051e+06 5.02051e+06 -3.50943e+06 -3.50943e+06 8.61951e+06 8.61951e+06 2.46109e+07 2.46109e+07 -4.2129e+06 -4.2129e+06 2.72446e+07 2.72446e+07 -3.07214e+06 -3.07214e+06 -2.76307e+06 -2.76307e+06 -3.41684e+07 -3.41684e+07 -6.63745e+06 -6.63745e+06 -3.729e+07 -3.729e+07 8.10006e+06 8.10006e+06 -4.49282e+06 -4.49282e+06 7.46956e+06 7.46956e+06 5.68241e+06 5.68241e+06 -3.88428e+07 -3.88428e+07 -2.39872e+07 -2.39872e+07 -2.14339e+07 -2.14339e+07 -2.06695e+07 -2.06695e+07 1.84327e+07 1.84327e+07 -1.96369e+06 -1.96369e+06 1.52051e+07 1.52051e+07 5.60945e+06 5.60945e+06 1.4708e+07 1.4708e+07 7.8224e+06 7.8224e+06 2.06297e+07 2.06297e+07 1.06508e+07 1.06508e+07 7.00763e+06 7.00763e+06 1.04447e+07 1.04447e+07 7.07526e+06 7.07526e+06 3.02141e+06 3.02141e+06 1.37136e+07 1.37136e+07 -9.17458e+06 -9.17458e+06 9.33433e+06 9.33433e+06 1.87303e+07 1.87303e+07 1.40289e+07 1.40289e+07 3.62465e+07 3.62465e+07 -4.20327e+06 -4.20327e+06 -3.9169e+06 -3.9169e+06 4.3198e+07 4.3198e+07 7.83217e+07 7.83217e+07 6.35571e+06 6.35571e+06 1.35715e+07 1.35715e+07 8.76969e+06 8.76969e+06 1.39016e+07 1.39016e+07 -2.40567e+07 -2.40567e+07 -6.34049e+06 -6.34049e+06 -2.08547e+07 -2.08547e+07 -4.18766e+06 -4.18766e+06 -9.64858e+06 -9.64858e+06 3.41671e+06 3.41671e+06 -7.5368e+06 -7.5368e+06 4.58458e+06 4.58458e+06 -2.85399e+07 -2.85399e+07 -2.59557e+06 -2.59557e+06 -1.18743e+06 -1.18743e+06 3.06456e+07 3.06456e+07 -2.20518e+07 -2.20518e+07 -2.58635e+06 -2.58635e+06 -1.9411e+07 -1.9411e+07 -3.24331e+06 -3.24331e+06 -1.50958e+07 -1.50958e+07 -691111 -691111 -1.32791e+07 -1.32791e+07 -2.00232e+06 -2.00232e+06 680583 680583 1.56703e+07 1.56703e+07 -2.94554e+07 -2.94554e+07 -2.89071e+07 -2.89071e+07 -9.0896e+06 -9.0896e+06 2.14034e+06 2.14034e+06 -3.44428e+06 -3.44428e+06 1.20636e+07 1.20636e+07 1.0188e+07 1.0188e+07 2.45089e+07 2.45089e+07 3.77068e+07 3.77068e+07 5.14342e+07 5.14342e+07 3.06097e+07 3.06097e+07 3.21989e+07 3.21989e+07 2.24432e+07 2.24432e+07 2.41675e+07 2.41675e+07 1.74765e+07 1.74765e+07 2.29045e+07 2.29045e+07 1.33689e+07 1.33689e+07 1.92503e+07 1.92503e+07 7.77981e+06 7.77981e+06 1.20261e+07 1.20261e+07 2.1265e+07 2.1265e+07 2.58851e+07 2.58851e+07 2.03419e+07 2.03419e+07 2.40333e+07 2.40333e+07 8.51224e+06 8.51224e+06 1.90691e+07 1.90691e+07 -1.16268e+09 -1.16268e+09 -1.16091e+09 -1.16091e+09 -1.10735e+09 -1.10735e+09 -1.06982e+09 -1.06982e+09 -8.55066e+08 -8.55066e+08 -9.10062e+08 -9.10062e+08 -8.79577e+08 -8.79577e+08 -9.03757e+08 -9.03757e+08 -8.80493e+08 -8.80493e+08 -7.76275e+08 -7.76275e+08 3.85447e+08 3.85447e+08 4.13371e+08 4.13371e+08 3.38026e+08 3.38026e+08 3.81426e+08 3.81426e+08 3.48602e+08 3.48602e+08 3.6884e+08 3.6884e+08 3.28778e+08 3.28778e+08 3.60298e+08 3.60298e+08 4.53159e+08 4.53159e+08 5.33946e+08 5.33946e+08 4.67035e+08 4.67035e+08 5.51494e+08 5.51494e+08 4.89075e+08 4.89075e+08 4.4688e+08 4.4688e+08 6.56196e+08 6.56196e+08 6.15038e+08 6.15038e+08 5.5507e+08 5.5507e+08 5.84539e+08 5.84539e+08 5.72002e+08 5.72002e+08 6.15536e+08 6.15536e+08 5.58597e+08 5.58597e+08 6.09642e+08 6.09642e+08 5.90148e+08 5.90148e+08 6.27058e+08 6.27058e+08 1.14282e+08 1.14282e+08 8.12103e+07 8.12103e+07 2.82958e+08 2.82958e+08 2.71815e+08 2.71815e+08 2.65619e+08 2.65619e+08 2.64138e+08 2.64138e+08 8.26218e+07 8.26218e+07 9.7821e+07 9.7821e+07 1.08858e+08 1.08858e+08 8.48117e+07 8.48117e+07 9.63116e+07 9.63116e+07 1.01876e+08 1.01876e+08 1.02407e+08 1.02407e+08 1.13764e+08 1.13764e+08 8.70344e+07 8.70344e+07 6.77252e+07 6.77252e+07 6.70122e+07 6.70122e+07 8.82885e+07 8.82885e+07 1.16465e+08 1.16465e+08 9.85996e+07 9.85996e+07 8.90102e+07 8.90102e+07 8.53725e+07 8.53725e+07 6.74683e+07 6.74683e+07 7.55522e+07 7.55522e+07 1.17925e+08 1.17925e+08 1.19553e+08 1.19553e+08 1.6607e+08 1.6607e+08 1.37546e+08 1.37546e+08 1.1523e+08 1.1523e+08 1.04429e+08 1.04429e+08 1.63458e+08 1.63458e+08 1.13986e+08 1.13986e+08 1.15992e+08 1.15992e+08 8.0539e+07 8.0539e+07 -3.14949e+07 -3.14949e+07 -4.01148e+06 -4.01148e+06 -3.62465e+07 -3.62465e+07 -9.6795e+06 -9.6795e+06 -1.01538e+07 -1.01538e+07 1.51048e+07 1.51048e+07 -7.75752e+06 -7.75752e+06 2.06973e+07 2.06973e+07 1.19532e+08 1.19532e+08 9.79192e+07 9.79192e+07 1.15065e+08 1.15065e+08 1.29422e+08 1.29422e+08 1.17125e+08 1.17125e+08 1.22171e+08 1.22171e+08 1.28221e+08 1.28221e+08 1.15593e+08 1.15593e+08 1.17796e+08 1.17796e+08 1.39144e+08 1.39144e+08 1.14608e+08 1.14608e+08 1.37347e+08 1.37347e+08 1.39144e+08 1.39144e+08 1.43999e+08 1.43999e+08 4.51176e+08 4.51176e+08 4.07051e+08 4.07051e+08 4.4511e+08 4.4511e+08 4.00866e+08 4.00866e+08 3.66757e+08 3.66757e+08 3.22131e+08 3.22131e+08 3.68365e+08 3.68365e+08 3.23076e+08 3.23076e+08 1.10632e+08 1.10632e+08 1.22768e+08 1.22768e+08 1.2348e+08 1.2348e+08 9.152e+07 9.152e+07 4.11362e+07 4.11362e+07 5.56876e+07 5.56876e+07 4.84081e+07 4.84081e+07 4.96882e+07 4.96882e+07 5.30462e+07 5.30462e+07 5.2852e+07 5.2852e+07 4.67877e+07 4.67877e+07 5.2852e+07 5.2852e+07 4.66346e+07 4.66346e+07 3.31261e+07 3.31261e+07 2.46288e+07 2.46288e+07 3.24565e+07 3.24565e+07 -3.53867e+07 -3.53867e+07 -8.39353e+07 -8.39353e+07 -9.03602e+07 -9.03602e+07 -8.36829e+07 -8.36829e+07 -5.93313e+07 -5.93313e+07 -9.36295e+07 -9.36295e+07 -9.49971e+07 -9.49971e+07 -8.51521e+07 -8.51521e+07 2.43282e+08 2.43282e+08 1.86601e+08 1.86601e+08 2.42342e+08 2.42342e+08 1.84707e+08 1.84707e+08 1.89986e+08 1.89986e+08 1.33578e+08 1.33578e+08 1.89986e+08 1.89986e+08 1.30942e+08 1.30942e+08 1.92485e+08 1.92485e+08 2.04744e+08 2.04744e+08 1.8985e+08 1.8985e+08 2.02121e+08 2.02121e+08 1.99065e+08 1.99065e+08 2.11815e+08 2.11815e+08 1.97171e+08 1.97171e+08 2.09809e+08 2.09809e+08 2.14607e+08 2.14607e+08 2.63244e+08 2.63244e+08 2.12601e+08 2.12601e+08 2.61346e+08 2.61346e+08 2.58224e+08 2.58224e+08 3.09959e+08 3.09959e+08 2.58224e+08 2.58224e+08 3.08444e+08 3.08444e+08 4.19111e+08 4.19111e+08 3.43126e+08 3.43126e+08 4.17596e+08 4.17596e+08 3.43126e+08 3.43126e+08 3.36824e+08 3.36824e+08 2.61839e+08 2.61839e+08 3.36824e+08 3.36824e+08 2.60981e+08 2.60981e+08 2.61839e+08 2.61839e+08 1.48984e+08 1.48984e+08 2.60981e+08 2.60981e+08 1.47327e+08 1.47327e+08 1.45948e+08 1.45948e+08 3.2787e+07 3.2787e+07 1.45948e+08 1.45948e+08 3.16488e+07 3.16488e+07 -7.44392e+07 -7.44392e+07 -7.92184e+07 -7.92184e+07 -7.55774e+07 -7.55774e+07 -8.05146e+07 -8.05146e+07 -8.27731e+07 -8.27731e+07 -8.72244e+07 -8.72244e+07 -8.27731e+07 -8.27731e+07 -8.77049e+07 -8.77049e+07 3.08979e+07 3.08979e+07 3.13675e+07 3.13675e+07 3.04174e+07 3.04174e+07 3.13675e+07 3.13675e+07 3.405e+07 3.405e+07 3.50475e+07 3.50475e+07 3.27538e+07 3.27538e+07 3.41069e+07 3.41069e+07 3.6443e+07 3.6443e+07 9.56451e+06 9.56451e+06 3.55024e+07 3.55024e+07 7.87766e+06 7.87766e+06 -4.7779e+08 -4.7779e+08 -5.04823e+08 -5.04823e+08 -4.51575e+08 -4.51575e+08 -4.78525e+08 -4.78525e+08 -5.57899e+08 -5.57899e+08 -4.83757e+08 -4.83757e+08 -5.40398e+08 -5.40398e+08 -4.69219e+08 -4.69219e+08 -3.85677e+08 -3.85677e+08 -2.96516e+08 -2.96516e+08 -3.68206e+08 -3.68206e+08 -2.7893e+08 -2.7893e+08 -3.74378e+08 -3.74378e+08 -4.07688e+08 -4.07688e+08 -3.56792e+08 -3.56792e+08 -3.90009e+08 -3.90009e+08 -4.60521e+08 -4.60521e+08 -4.95278e+08 -4.95278e+08 -4.42144e+08 -4.42144e+08 -4.76054e+08 -4.76054e+08 -3.45374e+08 -3.45374e+08 -3.50629e+08 -3.50629e+08 -3.21454e+08 -3.21454e+08 -3.26992e+08 -3.26992e+08 -3.0281e+08 -3.0281e+08 -3.07228e+08 -3.07228e+08 -2.84709e+08 -2.84709e+08 -2.88429e+08 -2.88429e+08 -2.659e+08 -2.659e+08 -5.57761e+08 -5.57761e+08 -2.47102e+08 -2.47102e+08 -5.38073e+08 -5.38073e+08 -4.9466e+08 -4.9466e+08 -7.89089e+08 -7.89089e+08 -4.7897e+08 -4.7897e+08 -7.72963e+08 -7.72963e+08 -1.87279e+08 -1.87279e+08 -3.16793e+08 -3.16793e+08 -1.71153e+08 -1.71153e+08 -3.00007e+08 -3.00007e+08 -2.82242e+08 -2.82242e+08 -4.10471e+08 -4.10471e+08 -2.56729e+08 -2.56729e+08 -3.85939e+08 -3.85939e+08 -4.56649e+07 -4.56649e+07 -8.73375e+07 -8.73375e+07 -6.36265e+06 -6.36265e+06 -5.13184e+07 -5.13184e+07 -1.13811e+08 -1.13811e+08 -1.59818e+08 -1.59818e+08 -9.78935e+07 -9.78935e+07 -1.42579e+08 -1.42579e+08 -3.38386e+08 -3.38386e+08 -2.3768e+08 -2.3768e+08 -3.17081e+08 -3.17081e+08 -2.17302e+08 -2.17302e+08 -1.90779e+08 -1.90779e+08 -9.40994e+07 -9.40994e+07 -1.9734e+08 -1.9734e+08 -1.0865e+08 -1.0865e+08 -3.86759e+08 -3.86759e+08 -3.19567e+08 -3.19567e+08 -3.5748e+08 -3.5748e+08 -2.87415e+08 -2.87415e+08 -4.42827e+08 -4.42827e+08 -3.73293e+08 -3.73293e+08 -4.09208e+08 -4.09208e+08 -3.37702e+08 -3.37702e+08 -4.7051e+08 -4.7051e+08 -4.67211e+08 -4.67211e+08 -4.44381e+08 -4.44381e+08 -4.3623e+08 -4.3623e+08 -4.21487e+08 -4.21487e+08 -4.11719e+08 -4.11719e+08 -3.91664e+08 -3.91664e+08 -3.81106e+08 -3.81106e+08 -3.65648e+08 -3.65648e+08 -3.60913e+08 -3.60913e+08 -3.80366e+08 -3.80366e+08 -3.74538e+08 -3.74538e+08 -3.52866e+08 -3.52866e+08 -3.45647e+08 -3.45647e+08 -3.37245e+08 -3.37245e+08 -3.29812e+08 -3.29812e+08 -3.33189e+08 -3.33189e+08 -3.31259e+08 -3.31259e+08 -3.37581e+08 -3.37581e+08 -3.37586e+08 -3.37586e+08 -3.0904e+08 -3.0904e+08 -3.08575e+08 -3.08575e+08 -3.89305e+08 -3.89305e+08 -3.8869e+08 -3.8869e+08 -3.72473e+08 -3.72473e+08 -3.55038e+08 -3.55038e+08 -3.85298e+08 -3.85298e+08 -3.6576e+08 -3.6576e+08 -3.44214e+08 -3.44214e+08 -3.24772e+08 -3.24772e+08 -2.23893e+08 -2.23893e+08 -2.05544e+08 -2.05544e+08 -2.42943e+08 -2.42943e+08 -2.7111e+08 -2.7111e+08 -2.17275e+08 -2.17275e+08 -2.47255e+08 -2.47255e+08 -2.55381e+08 -2.55381e+08 -2.92029e+08 -2.92029e+08 -2.54513e+08 -2.54513e+08 -2.89613e+08 -2.89613e+08 -2.39383e+08 -2.39383e+08 -2.2949e+08 -2.2949e+08 -2.18672e+08 -2.18672e+08 -2.12867e+08 -2.12867e+08 -2.50398e+08 -2.50398e+08 -2.41708e+08 -2.41708e+08 -2.29411e+08 -2.29411e+08 -2.29012e+08 -2.29012e+08 -2.91095e+08 -2.91095e+08 -2.28444e+08 -2.28444e+08 -2.63552e+08 -2.63552e+08 -2.00277e+08 -2.00277e+08 -1.81049e+08 -1.81049e+08 -1.1744e+08 -1.1744e+08 -1.84167e+08 -1.84167e+08 -1.22014e+08 -1.22014e+08 -3.50307e+06 -3.50307e+06 -4.02938e+06 -4.02938e+06 -1.04321e+08 -1.04321e+08 -1.49808e+08 -1.49808e+08 -1.07586e+08 -1.07586e+08 -1.48998e+08 -1.48998e+08 -6.04415e+07 -6.04415e+07 -8.7697e+07 -8.7697e+07 -1.76382e+08 -1.76382e+08 -2.29027e+08 -2.29027e+08 -1.57949e+08 -1.57949e+08 -2.08068e+08 -2.08068e+08 -2.29027e+08 -2.29027e+08 -2.81404e+08 -2.81404e+08 -2.08068e+08 -2.08068e+08 -2.56913e+08 -2.56913e+08 -2.03456e+08 -2.03456e+08 -2.02801e+08 -2.02801e+08 -2.01744e+08 -2.01744e+08 -2.01508e+08 -2.01508e+08 -2.38067e+08 -2.38067e+08 -2.3409e+08 -2.3409e+08 -2.13433e+08 -2.13433e+08 -2.09531e+08 -2.09531e+08 -1.87084e+08 -1.87084e+08 -1.83205e+08 -1.83205e+08 -1.6794e+08 -1.6794e+08 -1.6672e+08 -1.6672e+08 -1.57839e+08 -1.57839e+08 -1.5656e+08 -1.5656e+08 -1.53759e+08 -1.53759e+08 -1.60116e+08 -1.60116e+08 -6.4696e+07 -6.4696e+07 -7.28239e+07 -7.28239e+07 -2.90402e+08 -2.90402e+08 -2.91877e+08 -2.91877e+08 -2.76025e+08 -2.76025e+08 -2.74186e+08 -2.74186e+08 -2.6582e+08 -2.6582e+08 -2.61979e+08 -2.61979e+08 -2.26575e+08 -2.26575e+08 -2.0522e+08 -2.0522e+08 -1.98537e+08 -1.98537e+08 -1.7295e+08 -1.7295e+08 -1.91403e+08 -1.91403e+08 -1.71461e+08 -1.71461e+08 -1.81328e+08 -1.81328e+08 -1.62536e+08 -1.62536e+08 -1.94883e+08 -1.94883e+08 -1.84292e+08 -1.84292e+08 -1.61319e+08 -1.61319e+08 -1.50112e+08 -1.50112e+08 -1.4313e+08 -1.4313e+08 -1.32661e+08 -1.32661e+08 -1.42305e+08 -1.42305e+08 -1.30475e+08 -1.30475e+08 -2.0126e+08 -2.0126e+08 -2.36169e+08 -2.36169e+08 -1.23532e+08 -1.23532e+08 -1.5438e+08 -1.5438e+08 -1.73187e+08 -1.73187e+08 -2.01305e+08 -2.01305e+08 -1.5438e+08 -1.5438e+08 -1.83079e+08 -1.83079e+08 -2.322e+08 -2.322e+08 -2.71835e+08 -2.71835e+08 -2.73968e+08 -2.73968e+08 -3.1432e+08 -3.1432e+08 -3.59694e+08 -3.59694e+08 -4.15556e+08 -4.15556e+08 -3.40462e+08 -3.40462e+08 -3.97083e+08 -3.97083e+08 -1.69386e+08 -1.69386e+08 -2.19705e+08 -2.19705e+08 -1.55619e+08 -1.55619e+08 -2.06038e+08 -2.06038e+08 -8.22515e+07 -8.22515e+07 -1.24889e+08 -1.24889e+08 -7.21894e+07 -7.21894e+07 -1.11626e+08 -1.11626e+08 -1.07613e+08 -1.07613e+08 -1.0519e+08 -1.0519e+08 -8.38487e+07 -8.38487e+07 -8.05126e+07 -8.05126e+07 -1.0519e+08 -1.0519e+08 -9.86829e+07 -9.86829e+07 -8.31006e+07 -8.31006e+07 -7.70801e+07 -7.70801e+07 -1.36523e+08 -1.36523e+08 -1.23472e+08 -1.23472e+08 -1.15186e+08 -1.15186e+08 -1.03197e+08 -1.03197e+08 -1.23472e+08 -1.23472e+08 -1.05302e+08 -1.05302e+08 -5.65243e+07 -5.65243e+07 -5.83133e+07 -5.83133e+07 -3.77287e+07 -3.77287e+07 -2.67206e+07 -2.67206e+07 -3.3301e+07 -3.3301e+07 -2.04375e+07 -2.04375e+07 -2.67206e+07 -2.67206e+07 -1.496e+07 -1.496e+07 -3.19067e+07 -3.19067e+07 -1.60058e+07 -1.60058e+07 -3.63883e+06 -3.63883e+06 -5.55372e+07 -5.55372e+07 5.03289e+06 5.03289e+06 -4.47254e+07 -4.47254e+07 -5.55372e+07 -5.55372e+07 -1.06844e+08 -1.06844e+08 -6.02323e+06 -6.02323e+06 -2.32528e+07 -2.32528e+07 6.33919e+07 6.33919e+07 1.46874e+07 1.46874e+07 1.70148e+07 1.70148e+07 -4.65589e+07 -4.65589e+07 -6.68013e+07 -6.68013e+07 -1.33942e+08 -1.33942e+08 9.5427e+06 9.5427e+06 -5.13123e+07 -5.13123e+07 -1.64616e+07 -1.64616e+07 1.32096e+07 1.32096e+07 -2.18997e+07 -2.18997e+07 7.05827e+06 7.05827e+06 -1.70411e+07 -1.70411e+07 5.62885e+06 5.62885e+06 -2.45979e+07 -2.45979e+07 284990 284990 1.0693e+08 1.0693e+08 1.48387e+08 1.48387e+08 1.01928e+08 1.01928e+08 1.4377e+08 1.4377e+08 1.26024e+08 1.26024e+08 1.66148e+08 1.66148e+08 1.4377e+08 1.4377e+08 1.84778e+08 1.84778e+08 1.16623e+08 1.16623e+08 1.02553e+08 1.02553e+08 1.28838e+08 1.28838e+08 1.14281e+08 1.14281e+08 1.06073e+08 1.06073e+08 8.14086e+07 8.14086e+07 -8.14165e+07 -8.14165e+07 -7.13575e+07 -7.13575e+07 1.39546e+07 1.39546e+07 -2.98547e+07 -2.98547e+07 1.60257e+08 1.60257e+08 1.33178e+08 1.33178e+08 6.39184e+07 6.39184e+07 -2.03377e+07 -2.03377e+07 7.16643e+07 7.16643e+07 -1.26654e+07 -1.26654e+07 8.97106e+07 8.97106e+07 8.33482e+07 8.33482e+07 1.01984e+08 1.01984e+08 1.45112e+08 1.45112e+08 9.55625e+07 9.55625e+07 1.31209e+08 1.31209e+08 1.05463e+08 1.05463e+08 9.79993e+07 9.79993e+07 -1.04783e+08 -1.04783e+08 -1.05862e+08 -1.05862e+08 -1.56721e+06 -1.56721e+06 4.61855e+07 4.61855e+07 4.77622e+06 4.77622e+06 3.54058e+07 3.54058e+07 -1.23595e+07 -1.23595e+07 1.6759e+07 1.6759e+07 -3.28327e+07 -3.28327e+07 -5.57506e+07 -5.57506e+07 -3.95235e+07 -3.95235e+07 -6.25572e+07 -6.25572e+07 -5.22676e+07 -5.22676e+07 -7.72026e+07 -7.72026e+07 -6.02414e+07 -6.02414e+07 -8.28324e+07 -8.28324e+07 1.90516e+07 1.90516e+07 3.45404e+07 3.45404e+07 -3.36622e+06 -3.36622e+06 7.56083e+06 7.56083e+06 6.69818e+06 6.69818e+06 1.5933e+07 1.5933e+07 -1.23668e+07 -1.23668e+07 -3.93003e+06 -3.93003e+06 8.89782e+07 8.89782e+07 8.7848e+07 8.7848e+07 6.53845e+07 6.53845e+07 6.35093e+07 6.35093e+07 6.35093e+07 6.35093e+07 5.98577e+07 5.98577e+07 2.69681e+07 2.69681e+07 2.32284e+07 2.32284e+07 1.4731e+08 1.4731e+08 1.57084e+08 1.57084e+08 1.30365e+08 1.30365e+08 1.36857e+08 1.36857e+08 1.82839e+08 1.82839e+08 1.87134e+08 1.87134e+08 1.95706e+08 1.95706e+08 2.03948e+08 2.03948e+08 2.35138e+08 2.35138e+08 2.32219e+08 2.32219e+08 2.65953e+08 2.65953e+08 2.61497e+08 2.61497e+08 2.32219e+08 2.32219e+08 2.26156e+08 2.26156e+08 2.6047e+08 2.6047e+08 2.51173e+08 2.51173e+08 1.87258e+08 1.87258e+08 1.974e+08 1.974e+08 2.13302e+08 2.13302e+08 2.20949e+08 2.20949e+08 1.974e+08 1.974e+08 2.0395e+08 2.0395e+08 -1.8118e+08 -1.8118e+08 -1.76278e+08 -1.76278e+08 -1.3601e+08 -1.3601e+08 -1.53701e+08 -1.53701e+08 -1.52723e+08 -1.52723e+08 -1.69347e+08 -1.69347e+08 -1.53701e+08 -1.53701e+08 -1.70383e+08 -1.70383e+08 -1.99202e+08 -1.99202e+08 -2.14115e+08 -2.14115e+08 -1.26076e+08 -1.26076e+08 -1.05969e+08 -1.05969e+08 -1.42007e+08 -1.42007e+08 -1.20774e+08 -1.20774e+08 -1.05969e+08 -1.05969e+08 -8.47822e+07 -8.47822e+07 -1.1856e+08 -1.1856e+08 -9.82317e+07 -9.82317e+07 -1.19813e+08 -1.19813e+08 -1.33141e+08 -1.33141e+08 -1.33468e+08 -1.33468e+08 -1.45643e+08 -1.45643e+08 -1.33141e+08 -1.33141e+08 -1.45441e+08 -1.45441e+08 -1.77282e+08 -1.77282e+08 -1.86379e+08 -1.86379e+08 -1.11699e+08 -1.11699e+08 -1.61416e+08 -1.61416e+08 -1.23221e+08 -1.23221e+08 -1.71625e+08 -1.71625e+08 -1.61416e+08 -1.61416e+08 -2.09953e+08 -2.09953e+08 -1.52289e+08 -1.52289e+08 -2.02342e+08 -2.02342e+08 -1.46793e+08 -1.46793e+08 -1.13812e+08 -1.13812e+08 -1.56518e+08 -1.56518e+08 -1.22238e+08 -1.22238e+08 -1.13812e+08 -1.13812e+08 -7.97591e+07 -7.97591e+07 2.19169e+08 2.19169e+08 2.50391e+08 2.50391e+08 -3.92507e+08 -3.92507e+08 -3.98147e+08 -3.98147e+08 -3.78696e+08 -3.78696e+08 -3.84524e+08 -3.84524e+08 -3.98147e+08 -3.98147e+08 -4.0243e+08 -4.0243e+08 -3.77415e+08 -3.77415e+08 -3.81902e+08 -3.81902e+08 -7.01057e+07 -7.01057e+07 3.22576e+07 3.22576e+07 -4.10334e+08 -4.10334e+08 -3.05037e+08 -3.05037e+08 -2.96041e+08 -2.96041e+08 -1.91034e+08 -1.91034e+08 -3.00437e+08 -3.00437e+08 -1.92755e+08 -1.92755e+08 -3.6004e+08 -3.6004e+08 -1.49183e+08 -1.49183e+08 -3.96448e+08 -3.96448e+08 -1.83205e+08 -1.83205e+08 -1.76663e+08 -1.76663e+08 3.62317e+07 3.62317e+07 -1.85549e+08 -1.85549e+08 2.85606e+07 2.85606e+07 -2.00641e+08 -2.00641e+08 -1.47399e+08 -1.47399e+08 -1.98029e+08 -1.98029e+08 -1.46623e+08 -1.46623e+08 -1.41247e+08 -1.41247e+08 -9.02965e+07 -9.02965e+07 -1.40675e+08 -1.40675e+08 -8.75127e+07 -8.75127e+07 -6.25913e+07 -6.25913e+07 -6.17329e+07 -6.17329e+07 -9.40631e+07 -9.40631e+07 -8.99647e+07 -8.99647e+07 -8.72233e+07 -8.72233e+07 -8.37748e+07 -8.37748e+07 -8.54591e+07 -8.54591e+07 -8.31912e+07 -8.31912e+07 -9.54906e+07 -9.54906e+07 -1.00906e+08 -1.00906e+08 -9.97104e+07 -9.97104e+07 -1.07322e+08 -1.07322e+08 -1.0263e+08 -1.0263e+08 -1.10987e+08 -1.10987e+08 -9.66275e+07 -9.66275e+07 -1.01936e+08 -1.01936e+08 -5.40685e+07 -5.40685e+07 -8.97668e+07 -8.97668e+07 -8.11663e+07 -8.11663e+07 -1.12681e+08 -1.12681e+08 -1.12162e+08 -1.12162e+08 -1.4463e+08 -1.4463e+08 -1.15601e+08 -1.15601e+08 -1.45693e+08 -1.45693e+08 -1.04769e+08 -1.04769e+08 -1.3322e+08 -1.3322e+08 -1.13232e+08 -1.13232e+08 -1.44317e+08 -1.44317e+08 -1.44324e+08 -1.44324e+08 -1.76086e+08 -1.76086e+08 -1.3242e+08 -1.3242e+08 -1.61462e+08 -1.61462e+08 -5.96498e+07 -5.96498e+07 -5.79317e+07 -5.79317e+07 -7.75627e+07 -7.75627e+07 -7.0346e+07 -7.0346e+07 -7.62228e+07 -7.62228e+07 -7.00514e+07 -7.00514e+07 -7.52034e+07 -7.52034e+07 -6.63712e+07 -6.63712e+07 -5.9037e+07 -5.9037e+07 -4.05783e+07 -4.05783e+07 -1.56823e+08 -1.56823e+08 -1.58651e+08 -1.58651e+08 -1.4262e+08 -1.4262e+08 -1.44473e+08 -1.44473e+08 -1.45749e+08 -1.45749e+08 -1.45743e+08 -1.45743e+08 -1.50868e+08 -1.50868e+08 -1.51801e+08 -1.51801e+08 -1.42886e+08 -1.42886e+08 -1.44788e+08 -1.44788e+08 -1.31422e+08 -1.31422e+08 -1.33115e+08 -1.33115e+08 -8.69384e+07 -8.69384e+07 -8.61853e+07 -8.61853e+07 -5.76687e+07 -5.76687e+07 -3.94676e+07 -3.94676e+07 -9.24385e+07 -9.24385e+07 -7.27779e+07 -7.27779e+07 -6.14247e+07 -6.14247e+07 -4.18772e+07 -4.18772e+07 -7.54701e+07 -7.54701e+07 -5.45898e+07 -5.45898e+07 -1.5759e+08 -1.5759e+08 -1.65269e+08 -1.65269e+08 -1.49596e+08 -1.49596e+08 -1.58369e+08 -1.58369e+08 -1.48879e+08 -1.48879e+08 -1.57768e+08 -1.57768e+08 -1.53365e+08 -1.53365e+08 -1.61951e+08 -1.61951e+08 -1.52765e+08 -1.52765e+08 -1.57556e+08 -1.57556e+08 -1.47221e+08 -1.47221e+08 -1.52699e+08 -1.52699e+08 -1.4337e+08 -1.4337e+08 -1.49463e+08 -1.49463e+08 -1.53843e+08 -1.53843e+08 -1.58847e+