# vtk DataFile Version 3.0
#This file was generated by the deal.II library on 2016/5/13 at 16:44:34
ASCII
DATASET UNSTRUCTURED_GRID

POINTS 76064 double
143750 -68750 0
150000 -68750 0
143750 -62500 0
150000 -62500 0
143750 -62500 0
150000 -62500 0
143750 -56250 0
150000 -56250 0
168750 -31250 0
175000 -31250 0
168750 -25000 0
175000 -25000 0
175000 -37500 0
181250 -37500 0
175000 -31250 0
181250 -31250 0
181250 -37500 0
187500 -37500 0
181250 -31250 0
187500 -31250 0
168750 -56250 0
175000 -56250 0
168750 -50000 0
175000 -50000 0
175000 -56250 0
181250 -56250 0
175000 -50000 0
181250 -50000 0
181250 -56250 0
187500 -56250 0
181250 -50000 0
187500 -50000 0
168750 -50000 0
175000 -50000 0
168750 -43750 0
175000 -43750 0
187500 -37500 0
193750 -37500 0
187500 -31250 0
193750 -31250 0
193750 -37500 0
200000 -37500 0
193750 -31250 0
200000 -31250 0
187500 -87500 0
193750 -87500 0
187500 -81250 0
193750 -81250 0
193750 -87500 0
200000 -87500 0
193750 -81250 0
200000 -81250 0
187500 -81250 0
193750 -81250 0
187500 -75000 0
193750 -75000 0
193750 -81250 0
200000 -81250 0
193750 -75000 0
200000 -75000 0
187500 -62500 0
193750 -62500 0
187500 -56250 0
193750 -56250 0
193750 -62500 0
200000 -62500 0
193750 -56250 0
200000 -56250 0
187500 -56250 0
193750 -56250 0
187500 -50000 0
193750 -50000 0
193750 -56250 0
200000 -56250 0
193750 -50000 0
200000 -50000 0
175000 -50000 0
181250 -50000 0
175000 -43750 0
181250 -43750 0
181250 -50000 0
187500 -50000 0
181250 -43750 0
187500 -43750 0
175000 -43750 0
181250 -43750 0
175000 -37500 0
181250 -37500 0
181250 -43750 0
187500 -43750 0
181250 -37500 0
187500 -37500 0
187500 -50000 0
193750 -50000 0
187500 -43750 0
193750 -43750 0
193750 -50000 0
200000 -50000 0
193750 -43750 0
200000 -43750 0
187500 -43750 0
193750 -43750 0
187500 -37500 0
193750 -37500 0
193750 -43750 0
200000 -43750 0
193750 -37500 0
200000 -37500 0
96875 -43750 0
100000 -43750 0
96875 -40625 0
100000 -40625 0
109375 -84375 0
112500 -84375 0
109375 -81250 0
112500 -81250 0
112500 -68750 0
115625 -68750 0
112500 -65625 0
115625 -65625 0
115625 -68750 0
118750 -68750 0
115625 -65625 0
118750 -65625 0
106250 -50000 0
109375 -50000 0
106250 -46875 0
109375 -46875 0
159375 -18750 0
162500 -18750 0
159375 -15625 0
162500 -15625 0
153125 -9375 0
156250 -9375 0
153125 -6250 0
156250 -6250 0
156250 -12500 0
159375 -12500 0
156250 -9375 0
159375 -9375 0
112500 -46875 0
115625 -46875 0
112500 -43750 0
115625 -43750 0
115625 -43750 0
118750 -43750 0
115625 -40625 0
118750 -40625 0
134375 -46875 0
137500 -46875 0
134375 -43750 0
137500 -43750 0
134375 -43750 0
137500 -43750 0
134375 -40625 0
137500 -40625 0
165625 -12500 0
168750 -12500 0
165625 -9375 0
168750 -9375 0
165625 -9375 0
168750 -9375 0
165625 -6250 0
168750 -6250 0
165625 -6250 0
168750 -6250 0
165625 -3125 0
168750 -3125 0
131250 -71875 0
134375 -71875 0
131250 -68750 0
134375 -68750 0
134375 -68750 0
137500 -68750 0
134375 -65625 0
137500 -65625 0
134375 -65625 0
137500 -65625 0
134375 -62500 0
137500 -62500 0
140625 -71875 0
143750 -71875 0
140625 -68750 0
143750 -68750 0
143750 -71875 0
146875 -71875 0
143750 -68750 0
146875 -68750 0
146875 -71875 0
150000 -71875 0
146875 -68750 0
150000 -68750 0
131250 -81250 0
134375 -81250 0
131250 -78125 0
134375 -78125 0
134375 -81250 0
137500 -81250 0
134375 -78125 0
137500 -78125 0
131250 -78125 0
134375 -78125 0
131250 -75000 0
134375 -75000 0
134375 -78125 0
137500 -78125 0
134375 -75000 0
137500 -75000 0
131250 -62500 0
134375 -62500 0
131250 -59375 0
134375 -59375 0
134375 -62500 0
137500 -62500 0
134375 -59375 0
137500 -59375 0
131250 -59375 0
134375 -59375 0
131250 -56250 0
134375 -56250 0
134375 -59375 0
137500 -59375 0
134375 -56250 0
137500 -56250 0
137500 -81250 0
140625 -81250 0
137500 -78125 0
140625 -78125 0
140625 -81250 0
143750 -81250 0
140625 -78125 0
143750 -78125 0
137500 -78125 0
140625 -78125 0
137500 -75000 0
140625 -75000 0
140625 -78125 0
143750 -78125 0
140625 -75000 0
143750 -75000 0
137500 -56250 0
140625 -56250 0
137500 -53125 0
140625 -53125 0
140625 -56250 0
143750 -56250 0
140625 -53125 0
143750 -53125 0
143750 -56250 0
146875 -56250 0
143750 -53125 0
146875 -53125 0
146875 -56250 0
150000 -56250 0
146875 -53125 0
150000 -53125 0
181250 -100000 0
184375 -100000 0
181250 -96875 0
184375 -96875 0
184375 -100000 0
187500 -100000 0
184375 -96875 0
187500 -96875 0
181250 -96875 0
184375 -96875 0
181250 -93750 0
184375 -93750 0
184375 -96875 0
187500 -96875 0
184375 -93750 0
187500 -93750 0
178125 -93750 0
181250 -93750 0
178125 -90625 0
181250 -90625 0
178125 -90625 0
181250 -90625 0
178125 -87500 0
181250 -87500 0
190625 -100000 0
193750 -100000 0
190625 -96875 0
193750 -96875 0
187500 -96875 0
190625 -96875 0
187500 -93750 0
190625 -93750 0
190625 -96875 0
193750 -96875 0
190625 -93750 0
193750 -93750 0
178125 -87500 0
181250 -87500 0
178125 -84375 0
181250 -84375 0
178125 -84375 0
181250 -84375 0
178125 -81250 0
181250 -81250 0
150000 -71875 0
153125 -71875 0
150000 -68750 0
153125 -68750 0
153125 -71875 0
156250 -71875 0
153125 -68750 0
156250 -68750 0
150000 -68750 0
153125 -68750 0
150000 -65625 0
153125 -65625 0
153125 -68750 0
156250 -68750 0
153125 -65625 0
156250 -65625 0
150000 -65625 0
153125 -65625 0
150000 -62500 0
153125 -62500 0
159375 -68750 0
162500 -68750 0
159375 -65625 0
162500 -65625 0
162500 -71875 0
165625 -71875 0
162500 -68750 0
165625 -68750 0
165625 -71875 0
168750 -71875 0
165625 -68750 0
168750 -68750 0
168750 -75000 0
171875 -75000 0
168750 -71875 0
171875 -71875 0
168750 -71875 0
171875 -71875 0
168750 -68750 0
171875 -68750 0
162500 -68750 0
165625 -68750 0
162500 -65625 0
165625 -65625 0
165625 -68750 0
168750 -68750 0
165625 -65625 0
168750 -65625 0
165625 -65625 0
168750 -65625 0
165625 -62500 0
168750 -62500 0
168750 -65625 0
171875 -65625 0
168750 -62500 0
171875 -62500 0
171875 -65625 0
175000 -65625 0
171875 -62500 0
175000 -62500 0
153125 -31250 0
156250 -31250 0
153125 -28125 0
156250 -28125 0
156250 -31250 0
159375 -31250 0
156250 -28125 0
159375 -28125 0
159375 -31250 0
162500 -31250 0
159375 -28125 0
162500 -28125 0
159375 -28125 0
162500 -28125 0
159375 -25000 0
162500 -25000 0
168750 -12500 0
171875 -12500 0
168750 -9375 0
171875 -9375 0
171875 -12500 0
175000 -12500 0
171875 -9375 0
175000 -9375 0
168750 -9375 0
171875 -9375 0
168750 -6250 0
171875 -6250 0
171875 -9375 0
175000 -9375 0
171875 -6250 0
175000 -6250 0
175000 -25000 0
178125 -25000 0
175000 -21875 0
178125 -21875 0
175000 -21875 0
178125 -21875 0
175000 -18750 0
178125 -18750 0
178125 -21875 0
181250 -21875 0
178125 -18750 0
181250 -18750 0
184375 -25000 0
187500 -25000 0
184375 -21875 0
187500 -21875 0
181250 -21875 0
184375 -21875 0
181250 -18750 0
184375 -18750 0
175000 -18750 0
178125 -18750 0
175000 -15625 0
178125 -15625 0
178125 -18750 0
181250 -18750 0
178125 -15625 0
181250 -15625 0
181250 -18750 0
184375 -18750 0
181250 -15625 0
184375 -15625 0
175000 -9375 0
178125 -9375 0
175000 -6250 0
178125 -6250 0
190625 -9375 0
193750 -9375 0
190625 -6250 0
193750 -6250 0
193750 -9375 0
196875 -9375 0
193750 -6250 0
196875 -6250 0
196875 -9375 0
200000 -9375 0
196875 -6250 0
200000 -6250 0
190625 -6250 0
193750 -6250 0
190625 -3125 0
193750 -3125 0
193750 -6250 0
196875 -6250 0
193750 -3125 0
196875 -3125 0
196875 -6250 0
200000 -6250 0
196875 -3125 0
200000 -3125 0
196875 -3125 0
200000 -3125 0
196875 0 0
200000 0 0
137500 -68750 0
140625 -68750 0
137500 -65625 0
140625 -65625 0
140625 -68750 0
143750 -68750 0
140625 -65625 0
143750 -65625 0
137500 -65625 0
140625 -65625 0
137500 -62500 0
140625 -62500 0
140625 -65625 0
143750 -65625 0
140625 -62500 0
143750 -62500 0
131250 -56250 0
134375 -56250 0
131250 -53125 0
134375 -53125 0
134375 -56250 0
137500 -56250 0
134375 -53125 0
137500 -53125 0
131250 -53125 0
134375 -53125 0
131250 -50000 0
134375 -50000 0
134375 -53125 0
137500 -53125 0
134375 -50000 0
137500 -50000 0
137500 -62500 0
140625 -62500 0
137500 -59375 0
140625 -59375 0
140625 -62500 0
143750 -62500 0
140625 -59375 0
143750 -59375 0
137500 -59375 0
140625 -59375 0
137500 -56250 0
140625 -56250 0
140625 -59375 0
143750 -59375 0
140625 -56250 0
143750 -56250 0
175000 -100000 0
178125 -100000 0
175000 -96875 0
178125 -96875 0
178125 -100000 0
181250 -100000 0
178125 -96875 0
181250 -96875 0
175000 -96875 0
178125 -96875 0
175000 -93750 0
178125 -93750 0
178125 -96875 0
181250 -96875 0
178125 -93750 0
181250 -93750 0
181250 -93750 0
184375 -93750 0
181250 -90625 0
184375 -90625 0
184375 -93750 0
187500 -93750 0
184375 -90625 0
187500 -90625 0
181250 -90625 0
184375 -90625 0
181250 -87500 0
184375 -87500 0
184375 -90625 0
187500 -90625 0
184375 -87500 0
187500 -87500 0
193750 -100000 0
196875 -100000 0
193750 -96875 0
196875 -96875 0
196875 -100000 0
200000 -100000 0
196875 -96875 0
200000 -96875 0
193750 -96875 0
196875 -96875 0
193750 -93750 0
196875 -93750 0
196875 -96875 0
200000 -96875 0
196875 -93750 0
200000 -93750 0
187500 -93750 0
190625 -93750 0
187500 -90625 0
190625 -90625 0
190625 -93750 0
193750 -93750 0
190625 -90625 0
193750 -90625 0
187500 -90625 0
190625 -90625 0
187500 -87500 0
190625 -87500 0
190625 -90625 0
193750 -90625 0
190625 -87500 0
193750 -87500 0
193750 -93750 0
196875 -93750 0
193750 -90625 0
196875 -90625 0
196875 -93750 0
200000 -93750 0
196875 -90625 0
200000 -90625 0
193750 -90625 0
196875 -90625 0
193750 -87500 0
196875 -87500 0
196875 -90625 0
200000 -90625 0
196875 -87500 0
200000 -87500 0
181250 -87500 0
184375 -87500 0
181250 -84375 0
184375 -84375 0
184375 -87500 0
187500 -87500 0
184375 -84375 0
187500 -84375 0
181250 -84375 0
184375 -84375 0
181250 -81250 0
184375 -81250 0
184375 -84375 0
187500 -84375 0
184375 -81250 0
187500 -81250 0
175000 -81250 0
178125 -81250 0
175000 -78125 0
178125 -78125 0
178125 -81250 0
181250 -81250 0
178125 -78125 0
181250 -78125 0
175000 -78125 0
178125 -78125 0
175000 -75000 0
178125 -75000 0
178125 -78125 0
181250 -78125 0
178125 -75000 0
181250 -75000 0
181250 -81250 0
184375 -81250 0
[...]
POINT_DATA 76064
SCALARS velocity double 1
LOOKUP_TABLE default
-238.611 -235.374 -232.601 -229.582 -232.601 -229.582 -226.011 -223.935 -230.69 -232.327 -229.672 -230.879 -231.545 -232.997 -232.327 -232.633 -232.997 -232.73 -232.633 -233.33 -234.211 -232.879 -230.931 -231.106 -232.879 -234.129 -231.106 -233.676 -234.129 -234.982 -233.676 -234.471 -230.931 -231.106 -228.808 -229.317 -232.73 -234.235 -233.33 -233.917 -234.235 -235.02 -233.917 -236.587 -244.075 -241.309 -243.57 -243.326 -241.309 -242.346 -243.326 -243.814 -243.57 -243.326 -241.771 -242.966 -243.326 -243.814 -242.966 -248.166 -238.548 -238.598 -234.982 -236.956 -238.598 -238.216 -236.956 -236.499 -234.982 -236.956 -234.471 -235.163 -236.956 -236.499 -235.163 -235.962 -231.106 -233.676 -229.317 -232.28 -233.676 -234.471 -232.28 -233.588 -229.317 -232.28 -231.545 -232.997 -232.28 -233.588 -232.997 -232.73 -234.471 -235.163 -233.588 -234.871 -235.163 -235.962 -234.871 -235.797 -233.588 -234.871 -232.73 -234.235 -234.871 -235.797 -234.235 -235.02 -287.936 -281.64 -285.579 -277.345 -305.878 -302.127 -298.667 -301.618 -277.412 -268.617 -271.512 -267.257 -268.617 -261.613 -267.257 -257.046 -272.649 -266.826 -270.76 -261.982 -215.895 -216.822 -211.185 -214.03 -198.631 -203.737 -191.22 -200.648 -207.178 -209.483 -203.737 -207.552 -257.284 -249.534 -258.103 -251.849 -251.849 -246.241 -254.062 -249.273 -226.368 -223.192 -227.662 -225.575 -227.662 -225.575 -230.721 -228.834 -216.649 -221.688 -220.208 -222.584 -220.208 -222.584 -221.88 -221.843 -221.88 -221.843 -222.273 -224.224 -241.62 -239.453 -238.895 -239.456 -239.456 -244.527 -243.139 -239.994 -243.139 -239.994 -242.985 -237.256 -242.989 -241.317 -243.408 -238.611 -241.317 -236.466 -238.611 -236.992 -236.466 -236.675 -236.992 -235.374 -251.072 -246.073 -242.439 -242.961 -246.073 -245.94 -242.961 -241.091 -242.439 -242.961 -238.837 -238.547 -242.961 -241.091 -238.547 -236.597 -243.894 -242.985 -238.023 -237.404 -242.985 -237.256 -237.404 -234.065 -238.023 -237.404 -234.585 -233.143 -237.404 -234.065 -233.143 -233.032 -245.94 -242.784 -241.091 -240.281 -242.784 -242.065 -240.281 -243.475 -241.091 -240.281 -236.597 -235.667 -240.281 -243.475 -235.667 -234.819 -233.032 -231.447 -229.529 -227.679 -231.447 -226.011 -227.679 -225.643 -226.011 -224.973 -225.643 -220.453 -224.973 -223.935 -220.453 -225.812 -226.789 -244.506 -231.23 -243.236 -244.506 -255.863 -243.236 -254.53 -231.23 -243.236 -239.013 -241.723 -243.236 -254.53 -241.723 -248.597 -245.656 -239.013 -248.799 -244.517 -248.799 -244.517 -248.402 -243.205 -263.21 -248.818 -253.569 -246.988 -254.53 -253.569 -248.597 -246.783 -253.569 -246.988 -246.783 -243.908 -248.402 -243.205 -246.627 -239.901 -246.627 -239.901 -238.015 -234.844 -236.675 -234.291 -235.374 -227.768 -234.291 -230.653 -227.768 -222.767 -235.374 -227.768 -232.478 -223.2 -227.768 -222.767 -223.2 -221.482 -232.478 -223.2 -229.582 -223.183 -230.15 -233.423 -231.418 -232.69 -235.221 -237.507 -233.423 -234.046 -237.507 -235.632 -234.046 -231.428 -236.432 -232.057 -235.632 -229.115 -235.632 -229.115 -231.428 -231.344 -233.423 -234.046 -232.69 -233.451 -234.046 -231.428 -233.451 -233.715 -233.451 -233.715 -234.61 -232.52 -233.715 -234.452 -232.52 -232.535 -234.452 -232.846 -232.535 -231.968 -223.634 -222.703 -218.602 -217.767 -222.703 -223.03 -217.767 -221.194 -223.03 -222.8 -221.194 -220.629 -221.194 -220.629 -218.986 -220.425 -221.688 -224.131 -222.584 -223.233 -224.131 -222.853 -223.233 -227.521 -222.584 -223.233 -221.843 -224.314 -223.233 -227.521 -224.314 -228.141 -230.879 -230.447 -232.775 -230.926 -232.775 -230.926 -232.842 -230.238 -230.926 -231.804 -230.238 -228.82 -231.697 -232.218 -229.832 -229.339 -231.804 -229.832 -228.82 -226.354 -232.842 -230.238 -227.994 -224.302 -230.238 -228.82 -224.302 -224.619 -228.82 -226.354 -224.619 -226.616 -227.521 -233.811 -228.141 -231.18 -252.913 -259.56 -254.644 -262.136 -259.56 -262.74 -262.136 -269.548 -262.74 -264.361 -269.548 -275.68 -254.644 -262.136 -257.946 -263.791 -262.136 -269.548 -263.791 -276.37 -269.548 -275.68 -276.37 -287.172 -276.37 -287.172 -293.512 -294.465 -244.527 -243.408 -239.994 -237.947 -243.408 -238.611 -237.947 -235.606 -239.994 -237.947 -237.256 -234.572 -237.947 -235.606 -234.572 -232.601 -234.585 -233.143 -232.797 -230.72 -233.143 -233.032 -230.72 -229.529 -232.797 -230.72 -228.238 -227.501 -230.72 -229.529 -227.501 -223.622 -237.256 -234.572 -234.065 -229.666 -234.572 -232.601 -229.666 -229.306 -234.065 -229.666 -233.032 -231.447 -229.666 -229.306 -231.447 -226.011 -229.414 -228.148 -235.528 -234.394 -228.148 -226.789 -234.394 -231.23 -235.528 -234.394 -241.373 -245.656 -234.394 -231.23 -245.656 -239.013 -239.013 -241.723 -244.517 -245.902 -241.723 -248.597 -245.902 -246.744 -244.517 -245.902 -243.205 -245.449 -245.902 -246.744 -245.449 -244.075 -248.818 -239.501 -246.988 -242.797 -239.501 -234.075 -242.797 -236.464 -246.988 -242.797 -243.908 -242.238 -242.797 -236.464 -242.238 -238.509 -248.597 -246.783 -246.744 -245.206 -246.783 -243.908 -245.206 -241.273 -246.744 -245.206 -244.075 -242.692 -245.206 -241.273 -242.692 -241.309 -243.908 -242.238 -241.273 -240.814 -242.238 -238.509 -240.814 -240.7 -241.273 -240.814 -241.309 -241.827 -240.814 -240.7 -241.827 -242.346 -243.205 -245.449 -239.901 -241.883 -245.449 -244.075 -241.883 -243.822 -239.901 -241.883 -234.844 -239.301 -241.883 -243.822 -239.301 -243.57 -236.236 -238.015 -233.447 -233.397 -238.015 -234.844 -233.397 -232.975 -233.447 -233.397 -230.892 -233.06 -233.397 -232.975 -233.06 -233.817 -234.844 -239.301 -232.975 -239.735 -239.301 -243.57 -239.735 -242.67 -232.975 -239.735 -233.817 -237.55 -239.735 -242.67 -237.55 -241.771 -220.425 -226.273 -220.429 -222.93 -226.273 -229.672 -222.93 -225.463 -220.429 -222.93 -216.822 -220.238 -222.93 -225.463 -220.238 -224.304 -229.672 -230.275 -225.463 -229.262 -230.275 -230.879 -229.262 -232.775 -225.463 -229.262 -224.304 -229.039 -229.262 -232.775 -229.039 -232.842 -216.822 -220.238 -214.03 -219.155 -220.238 -224.304 -219.155 -220.523 -214.03 -219.155 -211.271 -216.649 -219.155 -220.523 -216.649 -221.688 -224.304 -229.039 -220.523 -224.487 -229.039 -232.842 -224.487 -227.994 -220.523 -224.487 -221.688 -224.131 -224.487 -227.994 -224.131 -222.853 -230.892 -233.06 -233.204 -233.802 -233.06 -233.817 -233.802 -231.929 -233.204 -233.802 -232.242 -230.171 -233.802 -231.929 -230.171 -231.446 -233.817 -237.55 -231.929 -232.323 -237.55 -241.771 -232.323 -236.939 -231.929 -232.323 -231.446 -236.04 -232.323 -236.939 -236.04 -237.845 -232.242 -230.171 -232.846 -233.97 -230.171 -231.446 -233.97 -233.976 -232.846 -233.97 -231.968 -234.556 -233.97 -233.976 -234.556 -236.161 -231.446 -236.04 -233.976 -236.332 -236.04 -237.845 -236.332 -238.026 -233.976 -236.332 -236.161 -237.441 -236.332 -238.026 -237.441 -238.548 -222.41 -223.318 -222.652 -223.205 -223.318 -223.434 -223.205 -224.108 -222.652 -223.205 -222.703 -223.03 -223.205 -224.108 -223.03 -222.8 -223.434 -225.379 -224.108 -225.809 -225.379 -226.11 -225.809 -227.886 -224.108 -225.809 -222.8 -226.596 -225.809 -227.886 -226.596 -230.69 -226.11 -228.909 -227.886 -229.712 -228.909 -231.545 -229.712 -231.936 -227.886 -229.712 -230.69 -231.508 -229.712 -231.936 -231.508 -232.327 -222.8 -226.596 -220.629 -226.372 -226.596 -230.69 -226.372 -230.181 -220.629 -226.372 -220.425 -226.273 -226.372 -230.181 -226.273 -229.672 -232.327 -232.48 -231.603 -231.532 -232.48 -232.633 -231.532 -232.494 -231.603 -231.532 -230.879 -230.447 -231.532 -232.494 -230.447 -230.502 -232.633 -232.982 -232.494 -233.623 -232.982 -233.33 -233.623 -235.795 -232.494 -233.623 -230.502 -231.697 -233.623 -235.795 -231.697 -232.218 -232.218 -234.846 -229.339 -232.413 -234.846 -237.122 -232.413 -234.671 -229.339 -232.413 -227.87 -228.052 -232.413 -234.671 -228.052 -231.295 -229.582 -223.183 -226.759 -224.218 -223.183 -226.423 -224.218 -223.961 -226.759 -224.218 -223.935 -223.47 -224.218 -223.961 -223.47 -223.907 -226.423 -233.119 -223.961 -227.783 -233.119 -235.675 -227.783 -230.942 -223.961 -227.783 -223.907 -226.776 -227.783 -230.942 -226.776 -229.622 -223.935 -223.47 -225.812 -224.342 -223.47 -223.907 -224.342 -225.504 -225.812 -224.342 -223.084 -224.739 -224.342 -225.504 -224.739 -224.23 -223.907 -226.776 -225.504 -226.268 -226.776 -229.622 -226.268 -228.939 -225.504 -226.268 -224.23 -225.24 -226.268 -228.939 -225.24 -227.946 -235.675 -234.61 -230.942 -232.422 -234.61 -232.52 -232.422 -232.958 -230.942 -232.422 -229.622 -231.995 -232.422 -232.958 -231.995 -234.211 -232.52 -232.535 -232.958 -233.227 -232.535 -231.968 -233.227 -234.404 -232.958 -233.227 -234.211 -233.545 -233.227 -234.404 -233.545 -232.879 -229.622 -231.995 -228.939 -231.381 -231.995 -234.211 -231.381 -232.571 -228.939 -231.381 -227.946 -228.757 -231.381 -232.571 -228.757 -230.931 -241.771 -242.368 -236.939 -239.917 -242.368 -242.966 -239.917 -239.726 -236.939 -239.917 -237.845 -237.349 -239.917 -239.726 -237.349 -237.117 -242.966 -245.566 -239.726 -240.986 -245.566 -248.166 -240.986 -244.235 -239.726 -240.986 -237.117 -237.785 -240.986 -244.235 -237.785 -239.647 -237.845 -237.349 -238.026 -236.835 -237.349 -237.117 -236.835 -237.693 -238.026 -236.835 -238.548 -238.573 -236.835 -237.693 -238.573 -238.598 -237.117 -237.785 -237.693 -239.44 -237.785 -239.647 -239.44 -240.32 -237.693 -239.44 -238.598 -238.407 -239.44 -240.32 -238.407 -238.216 -231.968 -234.556 -234.404 -234.958 -234.556 -236.161 -234.958 -235.32 -234.404 -234.958 -232.879 -233.504 -234.958 -235.32 -233.504 -234.129 -236.161 -237.441 -235.32 -235.53 -237.441 -238.548 -235.53 -236.765 -235.32 -235.53 -234.129 -234.556 -235.53 -236.765 -234.556 -234.982 -223.084 -224.739 -224.805 -225.472 -224.739 -224.23 -225.472 -225.441 -224.805 -225.472 -227.951 -227.064 -225.472 -225.441 -227.064 -227.398 -224.23 -225.24 -225.441 -226.442 -225.24 -227.946 -226.442 -227.171 -225.441 -226.442 -227.398 -227.158 -226.442 -227.171 -227.158 -227.928 -227.951 -227.064 -230.058 -227.796 -227.064 -227.398 -227.796 -226.462 -230.058 -227.796 -234.032 -226.839 -227.796 -226.462 -226.839 -222.41 -227.398 -227.158 -226.462 -226.157 -227.158 -227.928 -226.157 -225.11 -226.462 -226.157 -222.41 -223.318 -226.157 -225.11 -223.318 -223.434 -227.946 -228.757 -227.171 -228.069 -228.757 -230.931 -228.069 -229.869 -227.171 -228.069 -227.928 -230.562 -228.069 -229.869 -230.562 -228.808 -227.928 -230.562 -225.11 -225.032 -230.562 -228.808 -225.032 -226.964 -225.11 -225.032 -223.434 -225.379 -225.032 -226.964 -225.379 -226.11 -228.808 -229.063 -226.964 -228.752 -229.063 -229.317 -228.752 -230.431 -226.964 -228.752 -226.11 -228.909 -228.752 -230.431 -228.909 -231.545 -233.33 -233.623 -235.795 -235.824 -233.623 -233.917 -235.824 -235.54 -235.795 -235.824 -232.218 -234.846 -235.824 -235.54 -234.846 -237.122 -233.917 -235.252 -235.54 -235.481 -235.252 -236.587 -235.481 -236.931 -235.54 -235.481 -237.122 -239.287 -235.481 -236.931 -239.287 -240.121 -343.212 -330.778 -342.094 -330.576 -308.203 -307.598 -311.075 -304.581 -320.485 -320.841 -333.534 -323.902 -303.81 -295.656 -302.663 -299.977 -295.562 -286.828 -299.705 -289.037 -346.709 -338.343 -345.85 -340.276 -345.85 -340.276 -341.908 -336.588 -244.678 -245.739 -245.46 -244.59 -245.46 -244.59 -243.028 -242.549 -255.373 -254.304 -260.303 -257.943 -255.559 -255.171 -259.655 -260.426 -260.303 -257.943 -263.628 -262.278 -263.628 -262.278 -265.686 -266.699 -262.278 -263.418 -266.699 -266.719 -261.36 -254.876 -261.399 -256.73 -261.399 -256.73 -261.965 -260.847 -270.887 -268.179 -271.087 -269.13 -338.852 -331.473 -337.292 -329.767 -355.389 -336.467 -358.822 -342.396 -348.935 -331.306 -351.169 -336.777 -321.994 -311.269 -318.397 -310.167 -290.188 -286.507 -293.343 -287.204 -314.405 -308.658 -313.103 -304.434 -308.658 -301.59 -304.434 -296.515 -304.434 -296.515 -303.328 -292.596 -317.102 -309.225 -311.443 -302.177 -303.328 -292.596 -298.241 -291.167 -285.926 -279.824 -284.806 -282.789 -284.806 -282.789 -283.594 -284.432 -373.107 -354.407 -368.124 -349.24 -368.124 -349.24 -361.383 -343.995 -308.85 -299.501 -305.172 -290.798 -318.898 -308.864 -314.055 -305.945 -305.172 -290.798 -294.29 -289.84 -343.725 -331.669 -337.947 -325.219 -335.188 -325.176 -331.669 -320.085 -331.669 -320.085 -325.219 -313.75 -354.243 -337.947 -345.649 -329.403 -337.947 -325.219 -329.403 -316.618 -345.649 -329.403 -333.208 -321.44 -329.403 -316.618 -321.44 -310.672 -325.219 -313.75 -316.618 -308.03 -283.148 -280.41 -286.079 -283.652 -291.864 -286.079 -291.825 -286.296 -286.079 -283.652 -286.296 -284.439 -282.117 -282.59 -281.19 -280.323 -281.19 -280.323 -279.888 -279.15 -279.888 -279.15 -278.431 -277.149 -278.357 -278.431 -275.232 -276.325 -236.442 -240.72 -235.143 -238.97 -286.006 -282.824 -282.125 -277.913 -269.834 -260.841 -255.784 -246.771 -260.841 -256.978 -246.771 -238.798 -283.85 -280.557 -283.063 -277.924 -277.584 -273.123 -270.416 -265.017 -198.31 -198.314 -180.195 -182.21 -276.264 -271.087 -271.138 -270.169 -90.8535 -108.501 -88.3694 -106.293 -108.501 -126.314 -106.293 -124.115 -126.314 -142.683 -124.115 -140.843 -106.293 -124.115 -104.53 -122.804 -124.115 -140.843 -122.804 -139.336 -208.362 -221.987 -197.851 -212.402 -197.851 -212.402 -188.484 -201.944 -212.402 -224.924 -201.944 -219.307 -201.944 -219.307 -192.996 -209.876 -142.683 -159.255 -140.843 -157.755 -159.255 -176.41 -157.755 -174.453 -176.41 -193.048 -174.453 -190.899 -193.048 -209.539 -190.899 -207.632 -140.843 -157.755 -139.336 -155.509 -157.755 -174.453 -155.509 -173.096 -155.509 -173.096 -151.102 -168.311 -174.453 -190.899 -173.096 -190.178 -190.899 -207.632 -190.178 -204.955 -229.139 -247.455 -225.965 -244.406 -209.539 -225.965 -207.632 -224.314 -225.965 -244.406 -224.314 -240.432 -207.632 -224.314 -204.955 -221.786 -224.314 -240.432 -221.786 -238.062 -204.955 -221.786 -199.418 -217.87 -240.432 -255.035 -238.062 -253.799 -227.493 -244.208 -225.316 -243.168 -208.19 -225.316 -206.824 -224.769 -225.316 -243.168 -224.769 -240.409 -125.749 -145.463 -125.938 -146.069 -145.463 -165.168 -146.069 -165.705 -165.168 -185.244 -165.705 -182.294 -227.165 -241.498 -224.837 -243.92 -220.534 -237.587 -219.456 -233.801 -263.791 -267.733 -269.119 -274.65 -269.648 -269.119 -271.066 -276.776 -271.066 -276.776 -274.537 -278.144 -269.119 -274.65 -276.776 -277.84 -274.65 -276.8 -277.84 -277.631 -277.631 -279.499 -277.97 -282.345 -274.537 -278.144 -274.79 -280.151 -278.144 -280.381 -280.151 -280.47 -280.151 -280.47 -278.886 -280.138 -280.47 -279.426 -280.138 -284.447 -278.886 -280.138 -275.264 -279.486 -280.138 -284.447 -279.486 -282.115 -277.97 -282.345 -279.426 -285.4 -282.345 -283.609 -285.4 -285.632 -279.426 -285.4 -284.447 -284.211 -285.632 -284.548 -285.27 -286.258 -284.211 -285.27 -283.769 -291.281 -282.115 -283.769 -279.996 -288.334 -283.769 -291.281 -288.334 -296.28 -298.446 -303.697 -299.476 -303.811 -241.498 -258.972 -243.92 -259.833 -280.621 -288.571 -282.929 -293.329 -282.929 -293.329 -281.732 -295.064 -288.571 -295.147 -293.329 -297.889 -295.147 -301.117 -297.889 -305.288 0 -11.3748 0 -14.9923 0 -14.9923 0 -12.3552 0 -12.3552 0 -11.5686 -12.3552 -22.7568 -11.5686 -25.3614 0 -11.5686 0 -12.188 -11.5686 -25.3614 -12.188 -26.6211 -363.226 -366.899 -372.024 -376.688 -285.61 -276.45 -285.706 -277.809 -276.45 -268.211 -277.809 -270.404 -285.706 -277.809 -285.166 -277.882 -277.809 -270.404 -277.882 -273.297 -257.625 -249.533 -261.502 -252.866 -243.285 -236.512 -245.226 -239.253 -249.533 -245.226 -252.866 -245.903 -245.226 -239.253 -245.903 -241.773 -261.502 -252.866 -264.894 -257.015 -264.894 -257.015 -267.041 -260.046 -252.866 -245.903 -257.015 -248.367 -257.015 -248.367 -260.046 -253.469 -248.367 -243.699 -253.469 -246.026 -236.512 -231.084 -239.253 -232.46 -239.253 -232.46 -241.773 -235.668 -241.773 -235.668 -243.699 -236.707 -243.699 -236.707 -246.026 -237.828 -269.99 -267.041 -273.379 -266.876 -267.041 -260.046 -266.876 -261.737 -273.379 -266.876 -273.679 -268.096 -266.876 -261.737 -268.096 -258.412 -260.046 -253.469 -261.737 -254.949 -253.469 -246.026 -254.949 -247.457 -268.096 -258.412 -263.535 -255.431 -263.535 -255.431 -264.476 -258.762 -246.026 -237.828 -247.457 -239.597 -247.457 -239.597 -247.255 -242.406 -246.214 -240.76 -251.219 -238.886 -279.824 -274.68 -282.789 -277.397 -274.68 -271.968 -277.397 -275.599 -282.789 -277.397 -284.432 -280.949 -284.432 -280.949 -285.483 -284.546 -284.546 -281.802 -283.233 -282.285 -266.22 -260.484 -270.561 -263.539 -251.219 -238.886 -250.328 -242.546 -250.328 -242.546 -251.628 -245.493 -251.628 -245.493 -254.877 -245.868 -254.877 -245.868 -255.887 -246.418 -271.968 -270.561 -275.599 -272.083 -270.561 -263.539 -272.083 -265.229 -275.599 -272.083 -281.269 -273.68 -272.083 -265.229 -273.68 -266.402 -265.229 -259.17 -266.402 -259.357 -281.269 -273.68 -281.802 -275.96 -273.68 -266.402 -275.96 -269.954 -281.802 -275.96 -282.285 -279.444 -275.96 -269.954 -279.444 -272.666 -266.402 -259.357 -269.954 -263.557 -269.954 -263.557 -272.666 -267.407 -292.103 -293.449 -293.269 -290.68 -279.444 -272.666 -279.836 -275.034 -280.41 -279.836 -283.652 -281.335 -272.666 -267.407 -275.034 -266.022 -266.022 -261.36 -262.816 -261.399 -283.652 -281.335 -284.439 -280.7 -269.088 -262.816 -268.742 -264.978 -262.816 -261.399 -264.978 -261.965 -268.742 -264.978 -272.167 -267.249 -282.59 -279.345 -280.323 -276.838 -280.323 -276.838 -279.15 -274.541 -276.838 -270.883 -274.541 -270.765 -267.249 -266.236 -266.438 -266.751 -270.883 -266.438 -270.765 -266.883 -266.438 -266.751 -266.883 -264.453 -279.15 -274.541 -277.149 -273.06 -290.348 -291.471 -292.288 -293.182 -292.288 -293.182 -292.615 -292.634 -289.098 -290.884 -288.309 -288.212 -290.884 -291.185 -288.212 -288.994 -254.717 -261.868 -253.584 -260.547 -261.868 -267.603 -260.547 -267.033 -280.595 -283.652 -283.081 -286.606 -281.181 -281.331 -282.773 -283.86 -281.331 -282.578 -283.86 -282.568 -282.578 -285.204 -282.568 -282.829 -282.568 -282.829 -283.924 -281.763 -282.829 -281.562 -281.763 -277.784 -281.562 -281.853 -277.784 -281.526 -281.853 -285.491 -281.526 -286.363 -285.491 -288.842 -286.363 -290.525 -288.71 -291.91 -290.61 -293.894 -288.842 -290.61 -290.525 -294.04 -290.61 -293.894 -294.04 -296.816 -293.894 -295.476 -296.816 -298.475 -295.476 -296.59 -298.475 -300.898 -296.59 -297.394 -300.898 -302.802 -298.475 -300.898 -302.375 -305.853 -300.898 -302.802 -305.853 -310.047 -302.802 -301.481 -310.047 -315.987 -305.853 -310.047 -309.351 -315.715 -310.047 -315.987 -315.715 -324.509 -309.351 -315.715 -315.591 -320.21 -315.715 -324.509 -320.21 -325.125 -264.47 -267.793 -258.486 -266.955 -258.486 -266.955 -254.746 -260.243 -241.301 -245.338 -242.199 -248.782 -372.553 -370.47 -375.301 -374.232 -380.821 -381.047 -383.837 -386.753 -381.047 -380.951 -386.753 -388.144 -245.338 -253.584 -248.782 -256.039 -253.584 -260.547 -256.039 -261.167 -260.547 -267.033 -261.167 -266.624 -261.167 -266.624 -263.206 -268.464 -389.44 -394.363 -391.543 -398.643 -257.771 -266.458 -258.196 -265.579 -278.818 -285.14 -276.838 -283.681 -394.363 -400.375 -398.643 -404.495 -402.193 -409.452 -405.185 -414.207 -283.681 -287.456 -282.658 -288.145 -287.456 -290.842 -288.145 -295.537 -288.145 -295.537 -289.084 -296.301 -318.167 -325.353 -322.033 -330.779 -325.353 -335.711 -330.779 -337.585 -309.525 -318.941 -312.525 -325.664 -332.141 -337.129 -334.959 -340.902 -326.517 -331.012 -322.828 -334.618 -210.047 -204.931 -212.404 -210.264 -204.931 -204.242 -210.264 -208.606 -212.404 -210.264 -218.694 -215.45 -218.694 -215.45 -223.859 -221.341 -210.264 -208.606 -215.45 -214.12 -208.606 -207.487 -214.12 -214.34 -215.45 -214.12 -221.341 -218.162 -214.12 -214.34 -218.162 -217.54 -199.391 -200.087 -209.42 -205.058 -221.341 -218.162 -225.597 -225.351 -218.162 -217.54 -225.351 -217.648 -225.351 -217.648 -224.541 -224.839 -224.541 -224.839 -225.079 -224.82 -223.433 -225.079 -232.514 -232.74 -225.079 -224.82 -232.74 -231.318 -217.648 -213.918 -224.839 -225.835 -213.918 -212.981 -225.835 -223.861 -212.981 -212.515 -223.861 -220.468 -224.82 -224.882 -231.318 -230.143 -223.861