# vtk DataFile Version 3.0
#This file was generated by the deal.II library on 2016/5/13 at 16:44:19
ASCII
DATASET UNSTRUCTURED_GRID

POINTS 26120 double
162500 -25000 0
175000 -25000 0
162500 -12500 0
175000 -12500 0
150000 -62500 0
162500 -62500 0
150000 -50000 0
162500 -50000 0
162500 -62500 0
175000 -62500 0
162500 -50000 0
175000 -50000 0
187500 -75000 0
200000 -75000 0
187500 -62500 0
200000 -62500 0
175000 -62500 0
187500 -62500 0
175000 -50000 0
187500 -50000 0
187500 -62500 0
200000 -62500 0
187500 -50000 0
200000 -50000 0
150000 -50000 0
162500 -50000 0
150000 -37500 0
162500 -37500 0
162500 -50000 0
175000 -50000 0
162500 -37500 0
175000 -37500 0
175000 -50000 0
187500 -50000 0
175000 -37500 0
187500 -37500 0
187500 -50000 0
200000 -50000 0
187500 -37500 0
200000 -37500 0
187500 -37500 0
200000 -37500 0
187500 -25000 0
200000 -25000 0
93750 -56250 0
100000 -56250 0
93750 -50000 0
100000 -50000 0
68750 -50000 0
75000 -50000 0
68750 -43750 0
75000 -43750 0
75000 -50000 0
81250 -50000 0
75000 -43750 0
81250 -43750 0
81250 -50000 0
87500 -50000 0
81250 -43750 0
87500 -43750 0
81250 -43750 0
87500 -43750 0
81250 -37500 0
87500 -37500 0
112500 -100000 0
118750 -100000 0
112500 -93750 0
118750 -93750 0
112500 -93750 0
118750 -93750 0
112500 -87500 0
118750 -87500 0
118750 -93750 0
125000 -93750 0
118750 -87500 0
125000 -87500 0
112500 -87500 0
118750 -87500 0
112500 -81250 0
118750 -81250 0
112500 -81250 0
118750 -81250 0
112500 -75000 0
118750 -75000 0
118750 -81250 0
125000 -81250 0
118750 -75000 0
125000 -75000 0
100000 -75000 0
106250 -75000 0
100000 -68750 0
106250 -68750 0
106250 -75000 0
112500 -75000 0
106250 -68750 0
112500 -68750 0
112500 -25000 0
118750 -25000 0
112500 -18750 0
118750 -18750 0
100000 -37500 0
106250 -37500 0
100000 -31250 0
106250 -31250 0
106250 -31250 0
112500 -31250 0
106250 -25000 0
112500 -25000 0
87500 -50000 0
93750 -50000 0
87500 -43750 0
93750 -43750 0
93750 -50000 0
100000 -50000 0
93750 -43750 0
100000 -43750 0
100000 -56250 0
106250 -56250 0
100000 -50000 0
106250 -50000 0
106250 -56250 0
112500 -56250 0
106250 -50000 0
112500 -50000 0
112500 -56250 0
118750 -56250 0
112500 -50000 0
118750 -50000 0
118750 -56250 0
125000 -56250 0
118750 -50000 0
125000 -50000 0
150000 -100000 0
156250 -100000 0
150000 -93750 0
156250 -93750 0
156250 -100000 0
162500 -100000 0
156250 -93750 0
162500 -93750 0
150000 -93750 0
156250 -93750 0
150000 -87500 0
156250 -87500 0
156250 -93750 0
162500 -93750 0
156250 -87500 0
162500 -87500 0
150000 -87500 0
156250 -87500 0
150000 -81250 0
156250 -81250 0
156250 -87500 0
162500 -87500 0
156250 -81250 0
162500 -81250 0
150000 -81250 0
156250 -81250 0
150000 -75000 0
156250 -75000 0
156250 -81250 0
162500 -81250 0
156250 -75000 0
162500 -75000 0
100000 -50000 0
106250 -50000 0
100000 -43750 0
106250 -43750 0
106250 -50000 0
112500 -50000 0
106250 -43750 0
112500 -43750 0
143750 -25000 0
150000 -25000 0
143750 -18750 0
150000 -18750 0
131250 -37500 0
137500 -37500 0
131250 -31250 0
137500 -31250 0
137500 -37500 0
143750 -37500 0
137500 -31250 0
143750 -31250 0
143750 -37500 0
150000 -37500 0
143750 -31250 0
150000 -31250 0
143750 -31250 0
150000 -31250 0
143750 -25000 0
150000 -25000 0
150000 -25000 0
156250 -25000 0
150000 -18750 0
156250 -18750 0
156250 -25000 0
162500 -25000 0
156250 -18750 0
162500 -18750 0
150000 -18750 0
156250 -18750 0
150000 -12500 0
156250 -12500 0
156250 -18750 0
162500 -18750 0
156250 -12500 0
162500 -12500 0
162500 -100000 0
168750 -100000 0
162500 -93750 0
168750 -93750 0
168750 -100000 0
175000 -100000 0
168750 -93750 0
175000 -93750 0
162500 -93750 0
168750 -93750 0
162500 -87500 0
168750 -87500 0
168750 -93750 0
175000 -93750 0
168750 -87500 0
175000 -87500 0
150000 -12500 0
156250 -12500 0
150000 -6250 0
156250 -6250 0
156250 -12500 0
162500 -12500 0
156250 -6250 0
162500 -6250 0
150000 -6250 0
156250 -6250 0
150000 0 0
156250 0 0
156250 -6250 0
162500 -6250 0
156250 0 0
162500 0 0
162500 -87500 0
168750 -87500 0
162500 -81250 0
168750 -81250 0
168750 -87500 0
175000 -87500 0
168750 -81250 0
175000 -81250 0
162500 -81250 0
168750 -81250 0
162500 -75000 0
168750 -75000 0
168750 -81250 0
175000 -81250 0
168750 -75000 0
175000 -75000 0
112500 -50000 0
118750 -50000 0
112500 -43750 0
118750 -43750 0
118750 -50000 0
125000 -50000 0
118750 -43750 0
125000 -43750 0
112500 -43750 0
118750 -43750 0
112500 -37500 0
118750 -37500 0
118750 -43750 0
125000 -43750 0
118750 -37500 0
125000 -37500 0
125000 -25000 0
131250 -25000 0
125000 -18750 0
131250 -18750 0
131250 -25000 0
137500 -25000 0
131250 -18750 0
137500 -18750 0
125000 -18750 0
131250 -18750 0
125000 -12500 0
131250 -12500 0
131250 -18750 0
137500 -18750 0
131250 -12500 0
137500 -12500 0
125000 -50000 0
131250 -50000 0
125000 -43750 0
131250 -43750 0
131250 -50000 0
137500 -50000 0
131250 -43750 0
137500 -43750 0
125000 -43750 0
131250 -43750 0
125000 -37500 0
131250 -37500 0
131250 -43750 0
137500 -43750 0
131250 -37500 0
137500 -37500 0
137500 -50000 0
143750 -50000 0
137500 -43750 0
143750 -43750 0
143750 -50000 0
150000 -50000 0
143750 -43750 0
150000 -43750 0
137500 -43750 0
143750 -43750 0
137500 -37500 0
143750 -37500 0
143750 -43750 0
150000 -43750 0
143750 -37500 0
150000 -37500 0
162500 -12500 0
168750 -12500 0
162500 -6250 0
168750 -6250 0
168750 -12500 0
175000 -12500 0
168750 -6250 0
175000 -6250 0
162500 -6250 0
168750 -6250 0
162500 0 0
168750 0 0
168750 -6250 0
175000 -6250 0
168750 0 0
175000 0 0
125000 -75000 0
131250 -75000 0
125000 -68750 0
131250 -68750 0
131250 -75000 0
137500 -75000 0
131250 -68750 0
137500 -68750 0
125000 -68750 0
131250 -68750 0
125000 -62500 0
131250 -62500 0
131250 -68750 0
137500 -68750 0
131250 -62500 0
137500 -62500 0
137500 -75000 0
143750 -75000 0
137500 -68750 0
143750 -68750 0
143750 -75000 0
150000 -75000 0
143750 -68750 0
150000 -68750 0
137500 -68750 0
143750 -68750 0
137500 -62500 0
143750 -62500 0
143750 -68750 0
150000 -68750 0
143750 -62500 0
150000 -62500 0
125000 -62500 0
131250 -62500 0
125000 -56250 0
131250 -56250 0
131250 -62500 0
137500 -62500 0
131250 -56250 0
137500 -56250 0
125000 -56250 0
131250 -56250 0
125000 -50000 0
131250 -50000 0
131250 -56250 0
137500 -56250 0
131250 -50000 0
137500 -50000 0
137500 -62500 0
143750 -62500 0
137500 -56250 0
143750 -56250 0
143750 -62500 0
150000 -62500 0
143750 -56250 0
150000 -56250 0
137500 -56250 0
143750 -56250 0
137500 -50000 0
143750 -50000 0
143750 -56250 0
150000 -56250 0
143750 -50000 0
150000 -50000 0
175000 -100000 0
181250 -100000 0
175000 -93750 0
181250 -93750 0
181250 -100000 0
187500 -100000 0
181250 -93750 0
187500 -93750 0
175000 -93750 0
181250 -93750 0
175000 -87500 0
181250 -87500 0
181250 -93750 0
187500 -93750 0
181250 -87500 0
187500 -87500 0
187500 -100000 0
193750 -100000 0
187500 -93750 0
193750 -93750 0
193750 -100000 0
200000 -100000 0
193750 -93750 0
200000 -93750 0
187500 -93750 0
193750 -93750 0
187500 -87500 0
193750 -87500 0
193750 -93750 0
200000 -93750 0
193750 -87500 0
200000 -87500 0
175000 -87500 0
181250 -87500 0
175000 -81250 0
181250 -81250 0
181250 -87500 0
187500 -87500 0
181250 -81250 0
187500 -81250 0
175000 -81250 0
181250 -81250 0
175000 -75000 0
181250 -75000 0
181250 -81250 0
187500 -81250 0
181250 -75000 0
187500 -75000 0
187500 -87500 0
193750 -87500 0
187500 -81250 0
193750 -81250 0
193750 -87500 0
200000 -87500 0
193750 -81250 0
200000 -81250 0
187500 -81250 0
193750 -81250 0
187500 -75000 0
193750 -75000 0
193750 -81250 0
200000 -81250 0
193750 -75000 0
200000 -75000 0
150000 -75000 0
156250 -75000 0
150000 -68750 0
156250 -68750 0
156250 -75000 0
162500 -75000 0
156250 -68750 0
162500 -68750 0
150000 -68750 0
156250 -68750 0
150000 -62500 0
156250 -62500 0
156250 -68750 0
162500 -68750 0
156250 -62500 0
162500 -62500 0
162500 -75000 0
168750 -75000 0
162500 -68750 0
168750 -68750 0
168750 -75000 0
175000 -75000 0
168750 -68750 0
175000 -68750 0
162500 -68750 0
168750 -68750 0
162500 -62500 0
168750 -62500 0
168750 -68750 0
175000 -68750 0
168750 -62500 0
175000 -62500 0
175000 -75000 0
181250 -75000 0
175000 -68750 0
181250 -68750 0
181250 -75000 0
187500 -75000 0
181250 -68750 0
187500 -68750 0
175000 -68750 0
181250 -68750 0
175000 -62500 0
181250 -62500 0
181250 -68750 0
187500 -68750 0
181250 -62500 0
187500 -62500 0
150000 -37500 0
156250 -37500 0
150000 -31250 0
156250 -31250 0
156250 -37500 0
162500 -37500 0
156250 -31250 0
162500 -31250 0
150000 -31250 0
156250 -31250 0
150000 -25000 0
156250 -25000 0
156250 -31250 0
162500 -31250 0
156250 -25000 0
162500 -25000 0
162500 -37500 0
168750 -37500 0
162500 -31250 0
168750 -31250 0
168750 -37500 0
175000 -37500 0
168750 -31250 0
175000 -31250 0
162500 -31250 0
168750 -31250 0
162500 -25000 0
168750 -25000 0
168750 -31250 0
175000 -31250 0
168750 -25000 0
175000 -25000 0
175000 -37500 0
181250 -37500 0
175000 -31250 0
181250 -31250 0
181250 -37500 0
187500 -37500 0
181250 -31250 0
187500 -31250 0
175000 -31250 0
181250 -31250 0
175000 -25000 0
181250 -25000 0
181250 -31250 0
187500 -31250 0
181250 -25000 0
187500 -25000 0
175000 -25000 0
181250 -25000 0
175000 -18750 0
181250 -18750 0
181250 -25000 0
187500 -25000 0
181250 -18750 0
187500 -18750 0
175000 -18750 0
181250 -18750 0
175000 -12500 0
181250 -12500 0
181250 -18750 0
187500 -18750 0
181250 -12500 0
187500 -12500 0
187500 -25000 0
193750 -25000 0
187500 -18750 0
193750 -18750 0
193750 -25000 0
200000 -25000 0
193750 -18750 0
200000 -18750 0
187500 -18750 0
193750 -18750 0
187500 -12500 0
193750 -12500 0
193750 -18750 0
200000 -18750 0
193750 -12500 0
200000 -12500 0
175000 -12500 0
181250 -12500 0
175000 -6250 0
181250 -6250 0
181250 -12500 0
187500 -12500 0
181250 -6250 0
187500 -6250 0
175000 -6250 0
181250 -6250 0
175000 0 0
181250 0 0
181250 -6250 0
187500 -6250 0
181250 0 0
187500 0 0
187500 -12500 0
193750 -12500 0
187500 -6250 0
193750 -6250 0
193750 -12500 0
200000 -12500 0
193750 -6250 0
200000 -6250 0
187500 -6250 0
193750 -6250 0
187500 0 0
193750 0 0
193750 -6250 0
200000 -6250 0
[...]
POINT_DATA 26120
SCALARS velocity double 1
LOOKUP_TABLE default
144.567 144.691 146.348 145.272 141.32 141.764 142.248 142.435 141.764 141.516 142.435 142.605 140.415 140.128 141.325 141.054 141.516 141.325 142.605 142.442 141.325 141.054 142.442 142.288 142.248 142.435 142.721 143.322 142.435 142.605 143.322 143.551 142.605 142.442 143.551 143.521 142.442 142.288 143.521 143.586 143.521 143.586 144.644 144.769 139.326 138.999 138.423 138.592 130.334 134.593 128.352 131.693 134.593 136.979 131.693 132.882 136.979 138.805 132.882 134.976 132.882 134.976 131.49 134.595 126.773 130.983 129.304 131.929 129.304 131.929 133.608 133.884 131.929 131.086 133.884 132.93 133.608 133.884 135.709 135.998 135.709 135.998 136.749 136.481 135.998 134.6 136.481 136.936 136.645 136.299 138.349 137.335 136.299 136.749 137.335 137.736 147.783 148.609 153.478 148.34 141.312 142.368 143.662 142.153 142.153 144.398 146.328 147.783 138.805 138.423 134.976 136.83 138.423 138.592 136.83 138.777 138.999 139.238 138.592 139.114 139.238 139.767 139.114 139.796 139.767 140.295 139.796 140.274 140.295 140.527 140.274 140.793 137.57 137.957 138.174 137.873 137.957 137.979 137.873 138.088 138.174 137.873 138.866 139.966 137.873 138.088 139.966 139.986 138.866 139.966 139.982 140.464 139.966 139.986 140.464 140.517 139.982 140.464 140.573 141.034 140.464 140.517 141.034 141.191 138.592 139.114 138.777 139.7 139.114 139.796 139.7 140.559 143.893 144.355 146.718 146.318 142.864 142.035 146.129 144.258 142.035 142.096 144.258 143.25 142.096 142.721 143.25 143.544 143.25 143.544 143.893 144.355 144.355 144.323 146.318 146.449 144.323 144.567 146.449 145.458 146.318 146.449 148.796 147.166 146.449 145.458 147.166 146.348 137.979 138.443 138.088 139.213 138.443 138.956 139.213 139.456 138.088 139.213 139.986 139.671 139.213 139.456 139.671 139.973 148.796 147.166 149.743 148.076 147.166 146.348 148.076 146.775 149.743 148.076 150.531 148.615 148.076 146.775 148.615 147.083 139.986 139.671 140.517 140.181 139.671 139.973 140.181 140.234 140.517 140.181 141.191 141.002 140.181 140.234 141.002 140.738 139.796 140.274 140.559 141.441 140.274 140.793 141.441 141.672 140.559 141.441 142.696 142.456 141.441 141.672 142.456 143.279 149.979 147.959 150.679 148.437 147.959 145.434 148.437 147.981 150.679 148.437 146.59 148.548 148.437 147.981 148.548 148.992 140.793 141.46 141.672 142.174 141.46 141.795 142.174 142.2 141.672 142.174 143.279 142.864 142.174 142.2 142.864 142.035 141.795 142.042 142.2 142.243 142.042 142.248 142.243 142.485 142.2 142.243 142.035 142.096 142.243 142.485 142.096 142.721 146.348 145.81 146.775 146.035 145.81 145.272 146.035 145.402 146.775 146.035 147.083 146.224 146.035 145.402 146.224 145.469 136.936 137.728 138.73 138.997 137.728 138.589 138.997 139.395 138.73 138.997 140.231 139.897 138.997 139.395 139.897 140.156 138.589 139.615 139.395 140.052 139.615 140.573 140.052 140.619 139.395 140.052 140.156 140.644 140.052 140.619 140.644 141.32 140.231 139.897 140.527 140.669 139.897 140.156 140.669 141.043 140.527 140.669 140.793 141.46 140.669 141.043 141.46 141.795 140.156 140.644 141.043 141.468 140.644 141.32 141.468 141.784 141.043 141.468 141.795 142.042 141.468 141.784 142.042 142.248 138.956 139.101 139.456 139.474 139.101 139.26 139.474 139.551 139.456 139.474 139.973 139.91 139.474 139.551 139.91 139.708 139.26 138.787 139.551 139.152 138.787 138.342 139.152 138.684 139.551 139.152 139.708 139.562 139.152 138.684 139.562 139.322 139.973 139.91 140.234 140.183 139.91 139.708 140.183 139.924 140.234 140.183 140.738 140.559 140.183 139.924 140.559 140.415 139.708 139.562 139.924 139.901 139.562 139.322 139.901 139.879 139.924 139.901 140.415 140.272 139.901 139.879 140.272 140.128 140.573 141.034 140.619 140.982 141.034 141.191 140.982 141.416 140.619 140.982 141.32 141.542 140.982 141.416 141.542 141.764 141.191 141.002 141.416 141.486 141.002 140.738 141.486 141.279 141.416 141.486 141.764 141.64 141.486 141.279 141.64 141.516 140.738 140.559 141.279 141.015 140.559 140.415 141.015 140.87 141.279 141.015 141.516 141.421 141.015 140.87 141.421 141.325 142.721 143.021 143.544 143.676 143.021 143.322 143.676 143.8 143.544 143.676 144.355 144.323 143.676 143.8 144.323 144.567 143.322 143.436 143.8 143.906 143.436 143.551 143.906 144.028 143.8 143.906 144.567 144.629 143.906 144.028 144.629 144.691 143.551 143.536 144.028 144.099 143.536 143.521 144.099 144.083 144.028 144.099 144.691 144.563 144.099 144.083 144.563 144.644 144.691 144.563 144.982 144.939 144.563 144.644 144.939 145.101 144.982 144.939 145.272 144.85 144.939 145.101 144.85 145.262 144.644 144.706 145.101 145.386 144.706 144.769 145.386 145.473 145.101 145.386 145.262 146.327 145.386 145.473 146.327 146.842 145.272 144.85 145.402 144.454 144.85 145.262 144.454 143.413 145.402 144.454 145.469 144.227 144.454 143.413 144.227 141.732 145.262 146.327 143.413 147.425 146.327 146.842 147.425 151.694 143.413 147.425 141.732 148.233 147.425 151.694 148.233 155.894 113.974 118.142 114.667 117.763 113.467 114.667 113.833 117.06 91.9925 94.1846 92.8162 95.9052 94.1846 92.8598 95.9052 97.4298 92.8162 95.9052 97.4233 99.2697 95.9052 97.4298 99.2697 101.271 97.4233 99.2697 101.31 102.738 99.2697 101.271 102.738 105.33 99.5761 101.31 100.446 103.322 100.446 103.322 104.133 106.197 101.31 102.738 103.322 105.273 102.738 105.33 105.273 107.852 103.322 105.273 106.197 106.057 105.273 107.852 106.057 109.381 105.141 104.133 105.777 106.087 104.133 106.197 106.087 107.833 105.777 106.087 107.226 106.251 106.087 107.833 106.251 106.147 106.057 109.381 107.254 110.131 107.833 107.254 106.147 108.038 107.254 110.131 108.038 110.987 109.287 109.408 111.383 111.747 112.246 111.383 113.684 115.782 111.383 111.747 115.782 112.636 113.684 115.782 117.661 117.499 115.881 117.661 117.479 118.639 116.385 117.479 118.142 119.266 111.717 113.833 112.839 117.045 120.321 122.807 119.987 121.963 122.807 124.55 121.963 124.26 124.55 127.401 124.26 127.304 127.401 130.006 127.304 132.342 132.342 136.869 138.842 141.678 158.176 162.2 157.434 161.363 162.2 163.231 161.363 164.246 163.231 160.84 164.246 164.988 161.363 164.246 162.677 167.432 164.246 164.988 167.432 171.103 167.432 171.103 171.994 179.083 171.994 179.083 175.874 186.31 186.806 189.653 187.808 191.396 186.31 197.898 186.636 193.007 197.898 200.89 193.007 196.89 186.636 193.007 188.49 192.744 200.89 198.727 196.89 197.898 188.49 192.744 189.653 193.944 192.744 196.415 193.944 197.571 134.486 136.645 135.602 137.497 135.602 137.497 137.49 138.349 134.303 136.376 138.312 136.518 136.376 136.972 136.518 136.743 135.011 137.49 136.972 136.975 137.49 138.349 136.975 137.822 136.972 136.975 136.743 136.789 136.975 137.822 136.789 137.214 124.965 129.156 126.067 127.51 129.156 131.486 127.51 130.334 130.621 134.607 131.486 133.341 134.607 136.23 133.341 135.014 131.486 133.341 130.334 132.463 133.341 135.014 132.463 134.593 110.049 113.698 108.03 108.772 113.698 114.628 108.772 112.929 120.492 122.631 121.359 121.536 113.376 116.076 114.628 116.881 116.076 119.818 116.881 120.078 114.628 116.881 112.929 117.498 116.881 120.078 117.498 120.648 134.362 137.583 136.614 137.114 135.386 136.614 136.23 136.306 136.614 137.114 136.306 137.263 137.583 139.097 137.114 138.374 139.097 138.312 138.374 139.865 137.114 138.374 137.263 138.117 138.374 139.865 138.117 139.399 118.12 122.623 121.621 124.01 122.631 121.621 121.536 122.279 121.621 124.01 122.279 123.406 123.406 124.997 124.936 125.578 124.997 127.327 125.578 127.533 125.578 127.533 129.039 129.04 127.327 127.531 127.533 127.937 127.531 128.352 127.937 128.489 127.533 127.937 129.04 126.865 127.937 128.489 126.865 127.665 128.352 130.022 128.489 129.598 130.022 131.693 129.598 132.3 128.489 129.598 127.665 128.921 129.598 132.3 128.921 130.534 125.492 129.427 128.034 130.737 129.427 131.643 130.737 132.831 128.034 130.737 130.602 132.374 130.737 132.831 132.374 135.011 130.338 131.49 134.621 131.841 131.49 133.042 131.841 131.651 133.042 134.595 131.651 134.774 115.856 120.71 118.879 120.32 120.71 124.076 120.32 124.191 124.076 126.773 124.191 128.039 120.32 124.191 122.919 125.933 124.191 128.039 125.933 129.304 122.919 125.933 127.17 128.411 125.933 129.304 128.411 131.456 128.411 131.456 132.178 133.608 119.818 121.359 120.078 122.367 121.359 121.536 122.367 124.78 120.078 122.367 120.648 122.773 122.367 124.78 122.773 124.219 136.23 136.306 135.014 136.074 136.306 137.263 136.074 136.978 135.014 136.074 134.593 135.786 136.074 136.978 135.786 136.979 137.263 138.117 136.978 137.624 138.117 139.399 137.624 138.389 136.978 137.624 136.979 137.892 137.624 138.389 137.892 138.805 138.312 136.518 139.865 138.799 136.518 136.743 138.799 138.345 139.865 138.799 139.399 139.556 138.799 138.345 139.556 139.326 136.743 136.789 138.345 138.222 136.789 137.214 138.222 138.083 138.345 138.222 139.326 139.163 138.222 138.083 139.163 138.999 139.399 139.556 138.389 139.013 139.556 139.326 139.013 138.874 138.389 139.013 138.805 138.614 139.013 138.874 138.614 138.423 122.623 124.554 124.01 124.084 124.554 126.067 124.084 125.339 124.01 124.084 123.406 124.997 124.084 125.339 124.997 127.327 121.536 122.279 124.78 126.286 122.279 123.406 126.286 124.936 124.78 126.286 124.219 125.507 126.286 124.936 125.507 127.784 126.067 127.51 125.339 127.946 127.51 130.334 127.946 129.343 125.339 127.946 127.327 127.531 127.946 129.343 127.531 128.352 153.478 150.909 156.446 153.419 150.909 148.34 153.419 150.38 156.446 153.419 161.656 153.268 153.419 150.38 153.268 153.167 153.268 153.167 150.364 154.975 150.364 154.975 156.471 156.049 153.167 154.259 154.975 159.172 154.975 159.172 156.049 157.009 159.172 149.998 157.009 156.471 156.471 156.049 163.161 158.425 175.005 163.161 173.218 167.111 163.161 158.425 167.111 160.349 131.693 132.288 132.3 131.704 132.288 132.882 131.704 132.186 132.3 131.704 130.534 130.338 131.704 132.186 130.338 131.49 143.662 142.908 146.463 140.742 142.908 142.153 140.742 144.241 140.742 144.241 147.142 146.328 130.983 129.685 131.456 130.615 129.685 128.675 130.615 129.597 131.456 130.615 131.929 131.507 130.615 129.597 131.507 131.086 133.884 133.407 134.941 134.306 133.407 132.93 134.306 133.391 134.941 134.306 135.998 135.299 134.306 133.391 135.299 134.6 138.349 137.842 137.822 137.808 137.842 137.335 137.808 137.757 137.822 137.808 137.214 137.782 137.808 137.757 137.782 138.36 137.335 137.536 137.757 138.251 137.536 137.736 138.251 138.77 137.757 138.251 138.36 139.016 138.251 138.77 139.016 139.498 148.609 149.261 148.475 149.398 149.261 149.979 149.398 150.329 148.475 149.398 148.34 149.514 149.398 150.329 149.514 150.679 148.34 149.514 150.38 150.196 149.514 150.679 150.196 148.635 150.38 150.196 153.167 154.259 150.196 148.635 154.259 146.59 156.049 157.009 158.425 158.246 157.009 156.471 158.246 158.482 158.425 158.246 160.349 159.446 158.246 158.482 159.446 159.739 142.368 141.998 142.261 141.961 141.998 142.696 141.961 143.364 142.261 141.961 142.153 143.275 141.961 143.364 143.275 144.398 142.696 142.576 143.364 144.236 142.576 142.456 144.236 143.222 143.364 144.236 144.398 144.87 144.236 143.222 144.87 145.374 142.456 142.868 143.222 144.295 142.868 143.279 144.295 145.085 143.222 144.295 145.374 146.004 144.295 145.085 146.004 146.634 144.398 144.87 146.091 146.737 144.87 145.374 146.737 147.064 146.091 146.737 147.783 148.196 146.737 147.064 148.196 148.609 145.374 146.004 147.064 147.553 146.004 146.634 147.553 148.226 147.064 147.553 148.609 149.261 147.553 148.226 149.261 149.979 134.976 135.903 134.785 136.442 135.903 136.83 136.442 137.634 134.785 136.442 134.595 136.645 136.442 137.634 136.645 138.554 136.83 137.803 137.634 138.776 137.803 138.777 138.776 140.087 137.634 138.776 138.554 140.122 138.776 140.087 140.122 141.312 134.595 136.645 134.774 138.178 136.645 138.554 138.178 139.953 134.774 138.178 138.056 139.656 138.178 139.953 139.656 141.511 138.554 140.122 139.953 141.253 140.122 141.312 141.253 142.487 139.953 141.253 141.511 143.506 141.253 142.487 143.506 143.662 138.056 139.656 141.847 142.379 139.656 141.511 142.379 142.41 141.847 142.379 145.092 142.403 142.379 142.41 142.403 140.799 141.511 143.506 142.41 143.856 143.506 143.662 143.856 146.463 142.41 143.856 140.799 142.992 143.856 146.463 142.992 148.732 131.26 132.095 131.114 132.473 132.095 132.142 132.473 133.133 131.114 132.473 132.402 133.508 132.473 133.133 133.508 134.242 132.142 132.178 133.133 133.928 132.178 133.608 133.928 134.659 133.133 133.928 134.242 134.885 133.928 134.659 134.885 135.709 132.402 133.508 134.191 134.966 133.508 134.242 134.966 135.209 134.191 134.966 136.645 136.472 134.966 135.209 136.472 136.299 134.242 134.885 135.209 135.68 134.885 135.709 135.68 136.229 135.209 135.68 136.299 136.524 135.68 136.229 136.524 136.749 128.675 130.694 129.597 131.548 130.694 132.363 131.548 132.97 129.597 131.548 131.086 132.299 131.548 132.97 132.299 133.736 132.363 133.864 132.97 134.413 133.864 135.342 134.413 135.803 132.97 134.413 133.736 135.164 134.413 135.803 135.164 136.395 131.086 132.299 132.008 133.484 132.299 133.736 133.484 134.879 132.008 133.484 132.93 134.38 133.484 134.879 134.38 135.519 133.736 135.164 134.879 135.915 135.164 136.395 135.915 136.741 134.879 135.915 135.519 136.287 135.915 136.741 136.287 136.918 135.342 136.027 135.803 136.357 136.027 136.515 136.357 136.918 135.803 136.357 136.395 136.841 136.357 136.918 136.841 137.276 136.515 137 136.918 137.441 137 137.57 137.441 137.872 136.918 137.441 137.276 137.864 137.441 137.872 137.864 138.174 136.395 136.841 136.741 137.302 136.841 137.276 137.302 137.644 136.741 137.302 136.918 137.53 137.302 137.644 137.53 137.979 137.276 137.864 137.644 138.146 137.864 138.174 138.146 138.52 137.644 138.146 137.979 138.452 138.146 138.52 138.452 138.866 132.93 134.38 133.391 134.832 134.38 135.519 134.832 135.848 133.391 134.832 134.6 135.589 134.832 135.848 135.589 136.459 135.519 136.287 135.848 136.718 136.287 136.918 136.718 137.352 135.848 136.718 136.459 137.175 136.718 137.352 137.175 137.735 134.6 135.589 135.768 136.524 135.589 136.459 136.524 137.127 135.768 136.524 136.936 137.332 136.524 137.127 137.332 137.728 136.459 137.175 137.127 137.666 137.175 137.735 137.666 138.078 137.127 137.666 137.728 138.159 137.666 138.078 138.159 138.589 136.918 137.53 137.352 137.834 137.53 137.979 137.834 138.334 137.352 137.834 137.735 138.225 137.834 138.334 138.225 138.644 137.979 138.452 138.334 138.903 138.452 138.866 138.903 139.424 138.334 138.903 138.644 139.23 138.903 139.424 139.23 139.982 137.735 138.225 138.078 138.597 138.225 138.644 138.597 139.104 138.078 138.597 138.589 139.102 138.597 139.104 139.102 139.615 138.644 139.23 139.104 139.752 139.23 139.982 139.752 140.278 139.104 139.752 139.615 140.094 139.752 140.278 140.094 140.573 136.749 136.615 137.242 137.199 136.615 136.481 137.199 137.27 137.242 137.199 137.736 137.929 137.199 137.27 137.929 137.76 136.481 136.709 137.27 137.534 136.709 136.936 137.534 137.833 137.27 137.534 137.76 138.025 137.534 137.833 138.025 138.73 137.736 137.929 138.77 138.522 137.929 137.76 138.522 138.636 138.77 138.522 139.498 139.693 138.522 138.636 139.693 139.877 137.76 138.025 138.636 139.11 138.025 138.73 139.11 139.48 138.636 139.11 139.877 140.139 139.11 139.48 140.139 140.231 137.214 137.782 138.083 138.951 137.782 138.36 138.951 139.183 138.083 138.951 138.999 139.119 138.951 139.183 139.119 139.238 138.36 139.016 139.183 139.307 139.016 139.498 139.307 139.564 139.183 139.307 139.238 139.503 139.307 139.564 139.503 139.767 139.498 139.693 139.564 139.832 139.693 139.877 139.832 140.063 139.564 139.832 139.767 140.031 139.832 140.063 140.031 140.295 139.877 140.139 140.063 140.278 140.139 140.231 140.278 140.379 140.063 140.278 140.295 140.411 140.278 140.379 140.411 140.527 148.732 147.142 150.052 150.789 147.142 146.328 150.789 150.861 150.052 150.789 155.249 155.624 150.789 150.861 155.624 155.291 146.328 147.056 150.861 150.989 147.056 147.783 150.989 150.631 150.861 150.989 155.291 154.587 150.989 150.631 154.587 153.478 155.249 155.624 160.709 160.623 155.624 155.291 160.623 159.98 160.709 160.623 166.884 165.611 160.623 159.98 165.611 164.857 155.291 154.587 159.98 158.777 154.587 153.478 158.777 156.446 159.98 158.777 164.857 164.348 158.777 156.446 164.348 161.656 166.884 165.611 172.549 170.66 165.611 164.857 170.66 169.598 172.549 170.66 176.997 174.647 170.66 169.598 174.647 173.359 164.857 164.348 169.598 169.545 164.348 161.656 169.545 173.618 169.598 169.545 173.359 173.545 169.545 173.618 173.545 175.871 176.997 174.647 180.982 178.003 174.647 173.359 178.003 176.002 180.982 178.003 184.254 179.565 178.003 176.002 179.565 177.46 173.359 173.545 176.002 175.006 173.545 175.871 175.006 175.005 176.002 175.006 177.46 176.13 175.006 175.005 176.13 173.218 138.777 139.239 140.087 140.543 139.239 139.7 140.543 140.341 140.087 140.543 141.312 141.84 140.543 140.341 141.84 142.368 139.7 140.129 140.341 140.421 140.129 140.559 140.421 141.627 140.341 140.421 142.368 141.998 140.421 141.627 141.998 142.696 145.434 144.137 146.708 145.937 144.137 143.893 145.937 145.305 146.708 145.937 147.981 147.322 145.937 145.305 147.322 146.718 147.981 147.322 148.487 148.966 147.322 146.718 148.966 148.499 148.487 148.966 148.992 150.012 148.966 148.499 150.012 150.189 146.718 146.518 148.499 147.872 146.518 146.318 147.872 147.557 148.499 147.872 150.189 149.807 147.872 147.557 149.807 148.796 146.59 147.569 149.998 150.775 147.569 148.548 150.775 151.189 149.998 150.775 156.471 154.38 150.775 151.189 154.38 153.366 148.548 148.77 151.189 150.935 148.77 148.992 150.935 150.032 151.189 150.935 153.366 152.241 150.935 150.032 152.241 150.981 156.471 154.38 158.482 156.308 154.38 153.366 156.308 154.566 158.482 156.308 159.739 157.784 156.308 154.566 157.784 155.275 153.366 152.241 154.566 153.552 152.241 150.981 153.552 152.297 154.566 153.552 155.275 154.051 153.552 152.297 154.051 153.118 148.992 150.012 150.032 150.301 150.012 150.189 150.301 150.231 150.032 150.301 150.981 150.843 150.301 150.231 150.843 150.605 150.189 149.807 150.231 149.821 149.807 148.796 149.821 149.27 150.231 149.821 150.605 150.24 149.821 149.27 150.24 149.743 150.981 150.843 152.297 151.707 150.843 150.605 151.707 151.19 152.297 151.707 153.118 152.295 151.707 151.19 152.295 151.79 150.605 150.24 151.19 150.65 150.24 149.743 150.65 150.137 151.19 150.65 151.79 151.298 150.65 150.137 151.298 150.531 143.279 143.072 145.085 144.78 143.072 142.864 144.78 144.497 145.085 144.78 146.634 146.208 144.78 144.497 146.208 146.129 146.634 146.208 148.226 147.356 146.208 146.129 147.356 147 148.226 147.356 149.979 148.969 147.356 147 148.969 147.959 146.129 145.194 147 145.957 145.194 144.258 145.957 145.036 147 145.957 147.959 146.697 145.957 145.036 146.697 145.434 144.258 143.754 145.036 144.167 143.754 143.25 144.167 143.571 145.036 144.167 145.434 144.137 144.167 143.571 144.137 143.893 112.763 113.974 113.656 114.32 114.423 113.656 113.467 114.067 113.656 114.32 114.067 114.667 155.323 152.372 155.58 152.618 152.372 149.317 152.618 149.513 155.58 152.618 155.757 152.825 152.618 149.513 152.825 149.721 149.317 146.247 149.513 146.482 146.247 142.802 146.482 143.258 149.513 146.482 149.721 146.753 146.482 143.258 146.753 143.738 90.4707 89.9261 91.7121 89.5414 89.9261 88.0473 89.5414 89.286 89.5414 89.286 90.499 90.6329 90.499 90.6329 91.4943 90.2721 90.6329 91.4735 90.2721 91.5623 91.4735 91.9925 91.5623 92.4043 90.2721 91.5623 90.904 91.9395 91.5623 92.4043 91.9395 92.8162 155.757 152.825 155.691 152.781 152.825 149.721 152.781 149.751 155.691 152.781 155.537 152.705 152.781 149.751 152.705 149.783 149.721 146.753 149.751 146.662 146.753 143.738 146.662 143.982 149.751 146.662 149.783 147.033 146.662 143.982 147.033 144.558 142.802 140.212 143.258 140.922 140.212 137.869 140.922 138.524 143.258 140.922 143.738 141.457 140.922 138.524 141.457 139.034 137.869 135.683 138.524 136.241 135.683 133.559 13