# vtk DataFile Version 3.0
#This file was generated by the deal.II library on 2016/5/13 at 16:44:36
ASCII
DATASET UNSTRUCTURED_GRID

POINTS 76064 double
143750 -68750 0
150000 -68750 0
143750 -62500 0
150000 -62500 0
143750 -62500 0
150000 -62500 0
143750 -56250 0
150000 -56250 0
168750 -31250 0
175000 -31250 0
168750 -25000 0
175000 -25000 0
175000 -37500 0
181250 -37500 0
175000 -31250 0
181250 -31250 0
181250 -37500 0
187500 -37500 0
181250 -31250 0
187500 -31250 0
168750 -56250 0
175000 -56250 0
168750 -50000 0
175000 -50000 0
175000 -56250 0
181250 -56250 0
175000 -50000 0
181250 -50000 0
181250 -56250 0
187500 -56250 0
181250 -50000 0
187500 -50000 0
168750 -50000 0
175000 -50000 0
168750 -43750 0
175000 -43750 0
187500 -37500 0
193750 -37500 0
187500 -31250 0
193750 -31250 0
193750 -37500 0
200000 -37500 0
193750 -31250 0
200000 -31250 0
187500 -87500 0
193750 -87500 0
187500 -81250 0
193750 -81250 0
193750 -87500 0
200000 -87500 0
193750 -81250 0
200000 -81250 0
187500 -81250 0
193750 -81250 0
187500 -75000 0
193750 -75000 0
193750 -81250 0
200000 -81250 0
193750 -75000 0
200000 -75000 0
187500 -62500 0
193750 -62500 0
187500 -56250 0
193750 -56250 0
193750 -62500 0
200000 -62500 0
193750 -56250 0
200000 -56250 0
187500 -56250 0
193750 -56250 0
187500 -50000 0
193750 -50000 0
193750 -56250 0
200000 -56250 0
193750 -50000 0
200000 -50000 0
175000 -50000 0
181250 -50000 0
175000 -43750 0
181250 -43750 0
181250 -50000 0
187500 -50000 0
181250 -43750 0
187500 -43750 0
175000 -43750 0
181250 -43750 0
175000 -37500 0
181250 -37500 0
181250 -43750 0
187500 -43750 0
181250 -37500 0
187500 -37500 0
187500 -50000 0
193750 -50000 0
187500 -43750 0
193750 -43750 0
193750 -50000 0
200000 -50000 0
193750 -43750 0
200000 -43750 0
187500 -43750 0
193750 -43750 0
187500 -37500 0
193750 -37500 0
193750 -43750 0
200000 -43750 0
193750 -37500 0
200000 -37500 0
96875 -43750 0
100000 -43750 0
96875 -40625 0
100000 -40625 0
109375 -84375 0
112500 -84375 0
109375 -81250 0
112500 -81250 0
112500 -68750 0
115625 -68750 0
112500 -65625 0
115625 -65625 0
115625 -68750 0
118750 -68750 0
115625 -65625 0
118750 -65625 0
106250 -50000 0
109375 -50000 0
106250 -46875 0
109375 -46875 0
159375 -18750 0
162500 -18750 0
159375 -15625 0
162500 -15625 0
153125 -9375 0
156250 -9375 0
153125 -6250 0
156250 -6250 0
156250 -12500 0
159375 -12500 0
156250 -9375 0
159375 -9375 0
112500 -46875 0
115625 -46875 0
112500 -43750 0
115625 -43750 0
115625 -43750 0
118750 -43750 0
115625 -40625 0
118750 -40625 0
134375 -46875 0
137500 -46875 0
134375 -43750 0
137500 -43750 0
134375 -43750 0
137500 -43750 0
134375 -40625 0
137500 -40625 0
165625 -12500 0
168750 -12500 0
165625 -9375 0
168750 -9375 0
165625 -9375 0
168750 -9375 0
165625 -6250 0
168750 -6250 0
165625 -6250 0
168750 -6250 0
165625 -3125 0
168750 -3125 0
131250 -71875 0
134375 -71875 0
131250 -68750 0
134375 -68750 0
134375 -68750 0
137500 -68750 0
134375 -65625 0
137500 -65625 0
134375 -65625 0
137500 -65625 0
134375 -62500 0
137500 -62500 0
140625 -71875 0
143750 -71875 0
140625 -68750 0
143750 -68750 0
143750 -71875 0
146875 -71875 0
143750 -68750 0
146875 -68750 0
146875 -71875 0
150000 -71875 0
146875 -68750 0
150000 -68750 0
131250 -81250 0
134375 -81250 0
131250 -78125 0
134375 -78125 0
134375 -81250 0
137500 -81250 0
134375 -78125 0
137500 -78125 0
131250 -78125 0
134375 -78125 0
131250 -75000 0
134375 -75000 0
134375 -78125 0
137500 -78125 0
134375 -75000 0
137500 -75000 0
131250 -62500 0
134375 -62500 0
131250 -59375 0
134375 -59375 0
134375 -62500 0
137500 -62500 0
134375 -59375 0
137500 -59375 0
131250 -59375 0
134375 -59375 0
131250 -56250 0
134375 -56250 0
134375 -59375 0
137500 -59375 0
134375 -56250 0
137500 -56250 0
137500 -81250 0
140625 -81250 0
137500 -78125 0
140625 -78125 0
140625 -81250 0
143750 -81250 0
140625 -78125 0
143750 -78125 0
137500 -78125 0
140625 -78125 0
137500 -75000 0
140625 -75000 0
140625 -78125 0
143750 -78125 0
140625 -75000 0
143750 -75000 0
137500 -56250 0
140625 -56250 0
137500 -53125 0
140625 -53125 0
140625 -56250 0
143750 -56250 0
140625 -53125 0
143750 -53125 0
143750 -56250 0
146875 -56250 0
143750 -53125 0
146875 -53125 0
146875 -56250 0
150000 -56250 0
146875 -53125 0
150000 -53125 0
181250 -100000 0
184375 -100000 0
181250 -96875 0
184375 -96875 0
184375 -100000 0
187500 -100000 0
184375 -96875 0
187500 -96875 0
181250 -96875 0
184375 -96875 0
181250 -93750 0
184375 -93750 0
184375 -96875 0
187500 -96875 0
184375 -93750 0
187500 -93750 0
178125 -93750 0
181250 -93750 0
178125 -90625 0
181250 -90625 0
178125 -90625 0
181250 -90625 0
178125 -87500 0
181250 -87500 0
190625 -100000 0
193750 -100000 0
190625 -96875 0
193750 -96875 0
187500 -96875 0
190625 -96875 0
187500 -93750 0
190625 -93750 0
190625 -96875 0
193750 -96875 0
190625 -93750 0
193750 -93750 0
178125 -87500 0
181250 -87500 0
178125 -84375 0
181250 -84375 0
178125 -84375 0
181250 -84375 0
178125 -81250 0
181250 -81250 0
150000 -71875 0
153125 -71875 0
150000 -68750 0
153125 -68750 0
153125 -71875 0
156250 -71875 0
153125 -68750 0
156250 -68750 0
150000 -68750 0
153125 -68750 0
150000 -65625 0
153125 -65625 0
153125 -68750 0
156250 -68750 0
153125 -65625 0
156250 -65625 0
150000 -65625 0
153125 -65625 0
150000 -62500 0
153125 -62500 0
159375 -68750 0
162500 -68750 0
159375 -65625 0
162500 -65625 0
162500 -71875 0
165625 -71875 0
162500 -68750 0
165625 -68750 0
165625 -71875 0
168750 -71875 0
165625 -68750 0
168750 -68750 0
168750 -75000 0
171875 -75000 0
168750 -71875 0
171875 -71875 0
168750 -71875 0
171875 -71875 0
168750 -68750 0
171875 -68750 0
162500 -68750 0
165625 -68750 0
162500 -65625 0
165625 -65625 0
165625 -68750 0
168750 -68750 0
165625 -65625 0
168750 -65625 0
165625 -65625 0
168750 -65625 0
165625 -62500 0
168750 -62500 0
168750 -65625 0
171875 -65625 0
168750 -62500 0
171875 -62500 0
171875 -65625 0
175000 -65625 0
171875 -62500 0
175000 -62500 0
153125 -31250 0
156250 -31250 0
153125 -28125 0
156250 -28125 0
156250 -31250 0
159375 -31250 0
156250 -28125 0
159375 -28125 0
159375 -31250 0
162500 -31250 0
159375 -28125 0
162500 -28125 0
159375 -28125 0
162500 -28125 0
159375 -25000 0
162500 -25000 0
168750 -12500 0
171875 -12500 0
168750 -9375 0
171875 -9375 0
171875 -12500 0
175000 -12500 0
171875 -9375 0
175000 -9375 0
168750 -9375 0
171875 -9375 0
168750 -6250 0
171875 -6250 0
171875 -9375 0
175000 -9375 0
171875 -6250 0
175000 -6250 0
175000 -25000 0
178125 -25000 0
175000 -21875 0
178125 -21875 0
175000 -21875 0
178125 -21875 0
175000 -18750 0
178125 -18750 0
178125 -21875 0
181250 -21875 0
178125 -18750 0
181250 -18750 0
184375 -25000 0
187500 -25000 0
184375 -21875 0
187500 -21875 0
181250 -21875 0
184375 -21875 0
181250 -18750 0
184375 -18750 0
175000 -18750 0
178125 -18750 0
175000 -15625 0
178125 -15625 0
178125 -18750 0
181250 -18750 0
178125 -15625 0
181250 -15625 0
181250 -18750 0
184375 -18750 0
181250 -15625 0
184375 -15625 0
175000 -9375 0
178125 -9375 0
175000 -6250 0
178125 -6250 0
190625 -9375 0
193750 -9375 0
190625 -6250 0
193750 -6250 0
193750 -9375 0
196875 -9375 0
193750 -6250 0
196875 -6250 0
196875 -9375 0
200000 -9375 0
196875 -6250 0
200000 -6250 0
190625 -6250 0
193750 -6250 0
190625 -3125 0
193750 -3125 0
193750 -6250 0
196875 -6250 0
193750 -3125 0
196875 -3125 0
196875 -6250 0
200000 -6250 0
196875 -3125 0
200000 -3125 0
196875 -3125 0
200000 -3125 0
196875 0 0
200000 0 0
137500 -68750 0
140625 -68750 0
137500 -65625 0
140625 -65625 0
140625 -68750 0
143750 -68750 0
140625 -65625 0
143750 -65625 0
137500 -65625 0
140625 -65625 0
137500 -62500 0
140625 -62500 0
140625 -65625 0
143750 -65625 0
140625 -62500 0
143750 -62500 0
131250 -56250 0
134375 -56250 0
131250 -53125 0
134375 -53125 0
134375 -56250 0
137500 -56250 0
134375 -53125 0
137500 -53125 0
131250 -53125 0
134375 -53125 0
131250 -50000 0
134375 -50000 0
134375 -53125 0
137500 -53125 0
134375 -50000 0
137500 -50000 0
137500 -62500 0
140625 -62500 0
137500 -59375 0
140625 -59375 0
140625 -62500 0
143750 -62500 0
140625 -59375 0
143750 -59375 0
137500 -59375 0
140625 -59375 0
137500 -56250 0
140625 -56250 0
140625 -59375 0
143750 -59375 0
140625 -56250 0
143750 -56250 0
175000 -100000 0
178125 -100000 0
175000 -96875 0
178125 -96875 0
178125 -100000 0
181250 -100000 0
178125 -96875 0
181250 -96875 0
175000 -96875 0
178125 -96875 0
175000 -93750 0
178125 -93750 0
178125 -96875 0
181250 -96875 0
178125 -93750 0
181250 -93750 0
181250 -93750 0
184375 -93750 0
181250 -90625 0
184375 -90625 0
184375 -93750 0
187500 -93750 0
184375 -90625 0
187500 -90625 0
181250 -90625 0
184375 -90625 0
181250 -87500 0
184375 -87500 0
184375 -90625 0
187500 -90625 0
184375 -87500 0
187500 -87500 0
193750 -100000 0
196875 -100000 0
193750 -96875 0
196875 -96875 0
196875 -100000 0
200000 -100000 0
196875 -96875 0
200000 -96875 0
193750 -96875 0
196875 -96875 0
193750 -93750 0
196875 -93750 0
196875 -96875 0
200000 -96875 0
196875 -93750 0
200000 -93750 0
187500 -93750 0
190625 -93750 0
187500 -90625 0
190625 -90625 0
190625 -93750 0
193750 -93750 0
190625 -90625 0
193750 -90625 0
187500 -90625 0
190625 -90625 0
187500 -87500 0
190625 -87500 0
190625 -90625 0
193750 -90625 0
190625 -87500 0
193750 -87500 0
193750 -93750 0
196875 -93750 0
193750 -90625 0
196875 -90625 0
196875 -93750 0
200000 -93750 0
196875 -90625 0
200000 -90625 0
193750 -90625 0
196875 -90625 0
193750 -87500 0
196875 -87500 0
196875 -90625 0
200000 -90625 0
196875 -87500 0
200000 -87500 0
181250 -87500 0
184375 -87500 0
181250 -84375 0
184375 -84375 0
184375 -87500 0
187500 -87500 0
184375 -84375 0
187500 -84375 0
181250 -84375 0
184375 -84375 0
181250 -81250 0
184375 -81250 0
184375 -84375 0
187500 -84375 0
184375 -81250 0
187500 -81250 0
175000 -81250 0
178125 -81250 0
175000 -78125 0
178125 -78125 0
178125 -81250 0
181250 -81250 0
178125 -78125 0
181250 -78125 0
175000 -78125 0
178125 -78125 0
175000 -75000 0
178125 -75000 0
178125 -78125 0
181250 -78125 0
178125 -75000 0
181250 -75000 0
181250 -81250 0
184375 -81250 0
[...]
POINT_DATA 76064
SCALARS velocity double 1
LOOKUP_TABLE default
-95.1362 -93.8453 -92.7398 -91.5362 -92.7398 -91.5362 -90.1123 -89.2848 -91.9779 -92.6306 -91.572 -92.0532 -92.3187 -92.8977 -92.6306 -92.7528 -92.8977 -92.7913 -92.7528 -93.0304 -93.382 -92.8507 -92.0739 -92.1439 -92.8507 -93.3493 -92.1439 -93.1686 -93.3493 -93.6893 -93.1686 -93.4855 -92.0739 -92.1439 -91.2277 -91.4306 -92.7913 -93.3912 -93.0304 -93.2644 -93.3912 -93.7042 -93.2644 -94.3293 -97.3147 -96.2118 -97.1132 -97.0159 -96.2118 -96.6253 -97.0159 -97.2104 -97.1132 -97.0159 -96.396 -96.8725 -97.0159 -97.2104 -96.8725 -98.9456 -95.111 -95.1311 -93.6893 -94.4762 -95.1311 -94.9788 -94.4762 -94.2941 -93.6893 -94.4762 -93.4855 -93.7612 -94.4762 -94.2941 -93.7612 -94.0799 -92.1439 -93.1686 -91.4306 -92.6118 -93.1686 -93.4855 -92.6118 -93.1333 -91.4306 -92.6118 -92.3187 -92.8977 -92.6118 -93.1333 -92.8977 -92.7913 -93.4855 -93.7612 -93.1333 -93.645 -93.7612 -94.0799 -93.645 -94.0142 -93.1333 -93.645 -92.7913 -93.3912 -93.645 -94.0142 -93.3912 -93.7042 -114.803 -112.292 -113.863 -110.58 -121.956 -120.461 -119.081 -120.258 -110.606 -107.1 -108.254 -106.558 -107.1 -104.307 -106.558 -102.486 -108.707 -106.386 -107.954 -104.454 -86.079 -86.4488 -84.2011 -85.3353 -79.1956 -81.2316 -76.241 -80.0001 -82.6037 -83.5226 -81.2316 -82.7526 -102.581 -99.4913 -102.908 -100.414 -100.414 -98.1783 -101.297 -99.3871 -90.2547 -88.9883 -90.7706 -89.9387 -90.7706 -89.9387 -91.9905 -91.238 -86.3799 -88.3888 -87.7988 -88.7459 -87.7988 -88.7459 -88.4655 -88.4504 -88.4655 -88.4504 -88.6221 -89.3998 -96.3356 -95.4717 -95.2495 -95.4729 -95.4729 -97.4949 -96.9414 -95.6877 -96.9414 -95.6877 -96.88 -94.5957 -96.8816 -96.2152 -97.0486 -95.1362 -96.2152 -94.281 -95.1362 -94.4907 -94.281 -94.364 -94.4907 -93.8453 -100.104 -98.1111 -96.6622 -96.8704 -98.1111 -98.0581 -96.8704 -96.1249 -96.6622 -96.8704 -95.2261 -95.1106 -96.8704 -96.1249 -95.1106 -94.3333 -97.2423 -96.88 -94.9017 -94.655 -96.88 -94.5957 -94.655 -93.3236 -94.9017 -94.655 -93.5308 -92.9558 -94.655 -93.3236 -92.9558 -92.9116 -98.0581 -96.7998 -96.1249 -95.802 -96.7998 -96.5133 -95.802 -97.0755 -96.1249 -95.802 -94.3333 -93.9624 -95.802 -97.0755 -93.9624 -93.6243 -92.9116 -92.2798 -91.5151 -90.7774 -92.2798 -90.1123 -90.7774 -89.9656 -90.1123 -89.6985 -89.9656 -87.8963 -89.6985 -89.2848 -87.8963 -90.0332 -90.4227 -97.4863 -92.1931 -96.9801 -97.4863 -102.015 -96.9801 -101.483 -92.1931 -96.9801 -95.2962 -96.3769 -96.9801 -101.483 -96.3769 -99.1175 -97.9452 -95.2962 -99.198 -97.4909 -99.198 -97.4909 -99.0398 -96.9679 -104.944 -99.2057 -101.1 -98.4762 -101.483 -101.1 -99.1175 -98.3944 -101.1 -98.4762 -98.3944 -97.248 -99.0398 -96.9679 -98.3323 -95.6503 -98.3323 -95.6503 -94.8986 -93.6343 -94.364 -93.4138 -93.8453 -90.813 -93.4138 -91.9632 -90.813 -88.8191 -93.8453 -90.813 -92.6908 -88.9918 -90.813 -88.8191 -88.9918 -88.3067 -92.6908 -88.9918 -91.5362 -88.9847 -91.7628 -93.0676 -92.2682 -92.7752 -93.7847 -94.6958 -93.0676 -93.3159 -94.6958 -93.9483 -93.3159 -92.2724 -94.2672 -92.5229 -93.9483 -91.3499 -93.9483 -91.3499 -92.2724 -92.2386 -93.0676 -93.3159 -92.7752 -93.0788 -93.3159 -92.2724 -93.0788 -93.1841 -93.0788 -93.1841 -93.541 -92.7074 -93.1841 -93.4778 -92.7074 -92.7137 -93.4778 -92.8374 -92.7137 -92.4876 -89.1645 -88.7933 -87.1582 -86.8256 -88.7933 -88.924 -86.8256 -88.1916 -88.924 -88.8323 -88.1916 -87.9666 -88.1916 -87.9666 -87.3114 -87.8851 -88.3888 -89.3628 -88.7459 -89.0049 -89.3628 -88.8534 -89.0049 -90.7145 -88.7459 -89.0049 -88.4504 -89.4359 -89.0049 -90.7145 -89.4359 -90.9615 -92.0532 -91.8812 -92.8091 -92.072 -92.8091 -92.072 -92.8361 -91.7978 -92.072 -92.4222 -91.7978 -91.2325 -92.3793 -92.5873 -91.6359 -91.4394 -92.4222 -91.6359 -91.2325 -90.249 -92.8361 -91.7978 -90.9032 -89.4309 -91.7978 -91.2325 -89.4309 -89.5572 -91.2325 -90.249 -89.5572 -90.3537 -90.7145 -93.2225 -90.9615 -92.1731 -100.838 -103.489 -101.529 -104.516 -103.489 -104.756 -104.516 -107.471 -104.756 -105.403 -107.471 -109.916 -101.529 -104.516 -102.845 -105.176 -104.516 -107.471 -105.176 -110.191 -107.471 -109.916 -110.191 -114.498 -110.191 -114.498 -117.026 -117.405 -97.4949 -97.0486 -95.6877 -94.8714 -97.0486 -95.1362 -94.8714 -93.938 -95.6877 -94.8714 -94.5957 -93.5257 -94.8714 -93.938 -93.5257 -92.7398 -93.5308 -92.9558 -92.818 -91.99 -92.9558 -92.9116 -91.99 -91.5151 -92.818 -91.99 -91.0002 -90.7065 -91.99 -91.5151 -90.7065 -89.1599 -94.5957 -93.5257 -93.3236 -91.5695 -93.5257 -92.7398 -91.5695 -91.426 -93.3236 -91.5695 -92.9116 -92.2798 -91.5695 -91.426 -92.2798 -90.1123 -91.4693 -90.9643 -93.9068 -93.4549 -90.9643 -90.4227 -93.4549 -92.1931 -93.9068 -93.4549 -96.2373 -97.9452 -93.4549 -92.1931 -97.9452 -95.2962 -95.2962 -96.3769 -97.4909 -98.043 -96.3769 -99.1175 -98.043 -98.3788 -97.4909 -98.043 -96.9679 -97.8627 -98.043 -98.3788 -97.8627 -97.3147 -99.2057 -95.491 -98.4762 -96.8052 -95.491 -93.3275 -96.8052 -94.2799 -98.4762 -96.8052 -97.248 -96.5822 -96.8052 -94.2799 -96.5822 -95.0954 -99.1175 -98.3944 -98.3788 -97.7656 -98.3944 -97.248 -97.7656 -96.1977 -98.3788 -97.7656 -97.3147 -96.7633 -97.7656 -96.1977 -96.7633 -96.2118 -97.248 -96.5822 -96.1977 -96.0146 -96.5822 -95.0954 -96.0146 -95.9691 -96.1977 -96.0146 -96.2118 -96.4186 -96.0146 -95.9691 -96.4186 -96.6253 -96.9679 -97.8627 -95.6503 -96.4406 -97.8627 -97.3147 -96.4406 -97.2139 -95.6503 -96.4406 -93.6343 -95.411 -96.4406 -97.2139 -95.411 -97.1132 -94.1891 -94.8986 -93.0771 -93.0571 -94.8986 -93.6343 -93.0571 -92.8892 -93.0771 -93.0571 -92.0585 -92.9229 -93.0571 -92.8892 -92.9229 -93.2247 -93.6343 -95.411 -92.8892 -95.5841 -95.411 -97.1132 -95.5841 -96.7546 -92.8892 -95.5841 -93.2247 -94.7132 -95.5841 -96.7546 -94.7132 -96.396 -87.8851 -90.2169 -87.8867 -88.884 -90.2169 -91.572 -88.884 -89.894 -87.8867 -88.884 -86.4488 -87.8108 -88.884 -89.894 -87.8108 -89.432 -91.572 -91.8126 -89.894 -91.4088 -91.8126 -92.0532 -91.4088 -92.8091 -89.894 -91.4088 -89.432 -91.3196 -91.4088 -92.8091 -91.3196 -92.8361 -86.4488 -87.8108 -85.3353 -87.3788 -87.8108 -89.432 -87.3788 -87.9244 -85.3353 -87.3788 -84.2356 -86.3799 -87.3788 -87.9244 -86.3799 -88.3888 -89.432 -91.3196 -87.9244 -89.5048 -91.3196 -92.8361 -89.5048 -90.9032 -87.9244 -89.5048 -88.3888 -89.3628 -89.5048 -90.9032 -89.3628 -88.8534 -92.0585 -92.9229 -92.9803 -93.2186 -92.9229 -93.2247 -93.2186 -92.4721 -92.9803 -93.2186 -92.5968 -91.7711 -93.2186 -92.4721 -91.7711 -92.2793 -93.2247 -94.7132 -92.4721 -92.6289 -94.7132 -96.396 -92.6289 -94.4694 -92.4721 -92.6289 -92.2793 -94.111 -92.6289 -94.4694 -94.111 -94.8306 -92.5968 -91.7711 -92.8374 -93.2855 -91.7711 -92.2793 -93.2855 -93.2882 -92.8374 -93.2855 -92.4876 -93.5194 -93.2855 -93.2882 -93.5194 -94.1591 -92.2793 -94.111 -93.2882 -94.2274 -94.111 -94.8306 -94.2274 -94.9031 -93.2882 -94.2274 -94.1591 -94.6697 -94.2274 -94.9031 -94.6697 -95.111 -88.6765 -89.0386 -88.7731 -88.9938 -89.0386 -89.0851 -88.9938 -89.3538 -88.7731 -88.9938 -88.7933 -88.924 -88.9938 -89.3538 -88.924 -88.8323 -89.0851 -89.8604 -89.3538 -90.032 -89.8604 -90.1518 -90.032 -90.86 -89.3538 -90.032 -88.8323 -90.3457 -90.032 -90.86 -90.3457 -91.9779 -90.1518 -91.268 -90.86 -91.588 -91.268 -92.3187 -91.588 -92.4747 -90.86 -91.588 -91.9779 -92.3043 -91.588 -92.4747 -92.3043 -92.6306 -88.8323 -90.3457 -87.9666 -90.2562 -90.3457 -91.9779 -90.2562 -91.775 -87.9666 -90.2562 -87.8851 -90.2169 -90.2562 -91.775 -90.2169 -91.572 -92.6306 -92.6917 -92.3419 -92.3138 -92.6917 -92.7528 -92.3138 -92.6973 -92.3419 -92.3138 -92.0532 -91.8812 -92.3138 -92.6973 -91.8812 -91.9028 -92.7528 -92.8916 -92.6973 -93.1473 -92.8916 -93.0304 -93.1473 -94.0132 -92.6973 -93.1473 -91.9028 -92.3793 -93.1473 -94.0132 -92.3793 -92.5873 -92.5873 -93.6349 -91.4394 -92.665 -93.6349 -94.5424 -92.665 -93.5651 -91.4394 -92.665 -90.8537 -90.926 -92.665 -93.5651 -90.926 -92.219 -91.5362 -88.9847 -90.4105 -89.3976 -88.9847 -90.2766 -89.3976 -89.2949 -90.4105 -89.3976 -89.2848 -89.0994 -89.3976 -89.2949 -89.0994 -89.2735 -90.2766 -92.9463 -89.2949 -90.819 -92.9463 -93.9654 -90.819 -92.0786 -89.2949 -90.819 -89.2735 -90.4174 -90.819 -92.0786 -90.4174 -91.552 -89.2848 -89.0994 -90.0332 -89.4469 -89.0994 -89.2735 -89.4469 -89.9101 -90.0332 -89.4469 -88.9454 -89.6053 -89.4469 -89.9101 -89.6053 -89.4023 -89.2735 -90.4174 -89.9101 -90.2147 -90.4174 -91.552 -90.2147 -91.28 -89.9101 -90.2147 -89.4023 -89.8052 -90.2147 -91.28 -89.8052 -90.8838 -93.9654 -93.541 -92.0786 -92.6686 -93.541 -92.7074 -92.6686 -92.8823 -92.0786 -92.6686 -91.552 -92.4985 -92.6686 -92.8823 -92.4985 -93.382 -92.7074 -92.7137 -92.8823 -92.9895 -92.7137 -92.4876 -92.9895 -93.4589 -92.8823 -92.9895 -93.382 -93.1163 -92.9895 -93.4589 -93.1163 -92.8507 -91.552 -92.4985 -91.28 -92.2535 -92.4985 -93.382 -92.2535 -92.7279 -91.28 -92.2535 -90.8838 -91.2072 -92.2535 -92.7279 -91.2072 -92.0739 -96.396 -96.6342 -94.4694 -95.6566 -96.6342 -96.8725 -95.6566 -95.5806 -94.4694 -95.6566 -94.8306 -94.633 -95.6566 -95.5806 -94.633 -94.5405 -96.8725 -97.909 -95.5806 -96.083 -97.909 -98.9456 -96.083 -97.3786 -95.5806 -96.083 -94.5405 -94.8067 -96.083 -97.3786 -94.8067 -95.5491 -94.8306 -94.633 -94.9031 -94.4278 -94.633 -94.5405 -94.4278 -94.77 -94.9031 -94.4278 -95.111 -95.1211 -94.4278 -94.77 -95.1211 -95.1311 -94.5405 -94.8067 -94.77 -95.4666 -94.8067 -95.5491 -95.4666 -95.8174 -94.77 -95.4666 -95.1311 -95.055 -95.4666 -95.8174 -95.055 -94.9788 -92.4876 -93.5194 -93.4589 -93.6795 -93.5194 -94.1591 -93.6795 -93.8239 -93.4589 -93.6795 -92.8507 -93.1 -93.6795 -93.8239 -93.1 -93.3493 -94.1591 -94.6697 -93.8239 -93.9079 -94.6697 -95.111 -93.9079 -94.4002 -93.8239 -93.9079 -93.3493 -93.5193 -93.9079 -94.4002 -93.5193 -93.6893 -88.9454 -89.6053 -89.6314 -89.8973 -89.6053 -89.4023 -89.8973 -89.8849 -89.6314 -89.8973 -90.886 -90.5322 -89.8973 -89.8849 -90.5322 -90.6655 -89.4023 -89.8052 -89.8849 -90.2844 -89.8052 -90.8838 -90.2844 -90.5749 -89.8849 -90.2844 -90.6655 -90.5698 -90.2844 -90.5749 -90.5698 -90.8766 -90.886 -90.5322 -91.726 -90.8241 -90.5322 -90.6655 -90.8241 -90.2923 -91.726 -90.8241 -93.3103 -90.4424 -90.8241 -90.2923 -90.4424 -88.6765 -90.6655 -90.5698 -90.2923 -90.1705 -90.5698 -90.8766 -90.1705 -89.753 -90.2923 -90.1705 -88.6765 -89.0386 -90.1705 -89.753 -89.0386 -89.0851 -90.8838 -91.2072 -90.5749 -90.9331 -91.2072 -92.0739 -90.9331 -91.6508 -90.5749 -90.9331 -90.8766 -91.9271 -90.9331 -91.6508 -91.9271 -91.2277 -90.8766 -91.9271 -89.753 -89.7222 -91.9271 -91.2277 -89.7222 -90.4923 -89.753 -89.7222 -89.0851 -89.8604 -89.7222 -90.4923 -89.8604 -90.1518 -91.2277 -91.3291 -90.4923 -91.2051 -91.3291 -91.4306 -91.2051 -91.8747 -90.4923 -91.2051 -90.1518 -91.268 -91.2051 -91.8747 -91.268 -92.3187 -93.0304 -93.1474 -94.0132 -94.0251 -93.1474 -93.2644 -94.0251 -93.9118 -94.0132 -94.0251 -92.5873 -93.6349 -94.0251 -93.9118 -93.6349 -94.5424 -93.2644 -93.7968 -93.9118 -93.888 -93.7968 -94.3293 -93.888 -94.4664 -93.9118 -93.888 -94.5424 -95.4055 -93.888 -94.4664 -95.4055 -95.7381 -136.842 -131.884 -136.396 -131.803 -122.883 -122.642 -124.028 -121.439 -127.78 -127.922 -132.983 -129.142 -121.131 -117.88 -120.674 -119.603 -117.843 -114.361 -119.495 -115.241 -138.236 -134.9 -137.893 -135.671 -137.893 -135.671 -136.321 -134.2 -97.555 -97.978 -97.8667 -97.52 -97.8667 -97.52 -96.8972 -96.7061 -101.819 -101.393 -103.785 -102.844 -101.894 -101.739 -103.527 -103.834 -103.785 -102.844 -105.11 -104.572 -105.11 -104.572 -105.931 -106.335 -104.572 -105.027 -106.335 -106.343 -104.206 -101.621 -104.222 -102.36 -104.222 -102.36 -104.447 -104.002 -108.005 -106.925 -108.084 -107.304 -135.103 -132.161 -134.481 -131.481 -141.696 -134.152 -143.065 -136.516 -139.123 -132.094 -140.014 -134.276 -128.382 -124.105 -126.948 -123.666 -115.7 -114.233 -116.958 -114.51 -125.356 -123.064 -124.837 -121.38 -123.064 -120.246 -121.38 -118.223 -121.38 -118.223 -120.939 -116.66 -126.431 -123.291 -124.175 -120.48 -120.939 -116.66 -118.911 -116.09 -114.001 -111.568 -113.554 -112.75 -113.554 -112.75 -113.071 -113.405 -148.761 -141.305 -146.774 -139.245 -146.774 -139.245 -144.086 -137.153 -123.141 -119.413 -121.675 -115.944 -127.147 -123.147 -125.216 -121.983 -121.675 -115.944 -117.336 -115.562 -137.046 -132.239 -134.742 -129.668 -133.642 -129.65 -132.239 -127.62 -132.239 -127.62 -129.668 -125.095 -141.24 -134.742 -137.813 -131.335 -134.742 -129.668 -131.335 -126.238 -137.813 -131.335 -132.853 -128.161 -131.335 -126.238 -128.161 -123.867 -129.668 -125.095 -126.238 -122.814 -112.894 -111.802 -114.062 -113.094 -116.369 -114.062 -116.353 -114.149 -114.062 -113.094 -114.149 -113.408 -112.482 -112.671 -112.113 -111.767 -112.113 -111.767 -111.594 -111.299 -111.594 -111.299 -111.013 -110.502 -110.983 -111.013 -109.737 -110.173 -94.2715 -95.977 -93.7536 -95.2792 -114.033 -112.764 -112.486 -110.806 -107.585 -103.999 -101.983 -98.3894 -103.999 -102.459 -98.3894 -95.2105 -113.173 -111.86 -112.859 -110.81 -110.675 -108.896 -107.817 -105.664 -79.0679 -79.0694 -71.8452 -72.6484 -110.149 -108.084 -108.105 -107.719 -36.224 -43.2601 -35.2336 -42.3798 -43.2601 -50.3624 -42.3798 -49.4857 -50.3624 -56.8888 -49.4857 -56.1552 -42.3798 -49.4857 -41.6768 -48.963 -49.4857 -56.1552 -48.963 -55.5543 -83.0755 -88.5079 -78.8847 -84.6862 -78.8847 -84.6862 -75.1502 -80.5167 -84.6862 -89.6791 -80.5167 -87.4396 -80.5167 -87.4396 -76.949 -83.6794 -56.8888 -63.4962 -56.1552 -62.8983 -63.4962 -70.336 -62.8983 -69.5558 -70.336 -76.9697 -69.5558 -76.1129 -76.9697 -83.545 -76.1129 -82.7844 -56.1552 -62.8983 -55.5543 -62.0028 -62.8983 -69.5558 -62.0028 -69.0146 -62.0028 -69.0146 -60.2457 -67.1071 -69.5558 -76.1129 -69.0146 -75.8256 -76.1129 -82.7844 -75.8256 -81.717 -91.3594 -98.6622 -90.094 -97.4465 -83.545 -90.094 -82.7844 -89.4357 -90.094 -97.4465 -89.4357 -95.8623 -82.7844 -89.4357 -81.717 -88.4277 -89.4357 -95.8623 -88.4277 -94.917 -81.717 -88.4277 -79.5096 -86.8664 -95.8623 -101.685 -94.917 -101.192 -90.7032 -97.3676 -89.8354 -96.9529 -83.007 -89.8354 -82.4622 -89.6172 -89.8354 -96.9529 -89.6172 -95.853 -50.1373 -57.9973 -50.2123 -58.2387 -57.9973 -65.8536 -58.2387 -66.068 -65.8536 -73.8583 -66.068 -72.6822 -90.5726 -96.2873 -89.6442 -97.2529 -87.9285 -94.7279 -87.499 -93.2183 -105.175 -106.747 -107.3 -109.505 -107.511 -107.3 -108.076 -110.353 -108.076 -110.353 -109.46 -110.898 -107.3 -109.505 -110.353 -110.777 -109.505 -110.363 -110.777 -110.694 -110.694 -111.438 -110.829 -112.573 -109.46 -110.898 -109.561 -111.698 -110.898 -111.79 -111.698 -111.826 -111.698 -111.826 -111.194 -111.693 -111.826 -111.409 -111.693 -113.411 -111.194 -111.693 -109.75 -111.433 -111.693 -113.411 -111.433 -112.481 -110.829 -112.573 -111.409 -113.791 -112.573 -113.077 -113.791 -113.884 -111.409 -113.791 -113.411 -113.317 -113.884 -113.451 -113.739 -114.133 -113.317 -113.739 -113.141 -116.136 -112.481 -113.141 -111.637 -114.961 -113.141 -116.136 -114.961 -118.129 -118.993 -121.087 -119.404 -121.132 -96.2873 -103.254 -97.2529 -103.597 -111.886 -115.055 -112.806 -116.952 -112.806 -116.952 -112.329 -117.644 -115.055 -117.678 -116.952 -118.771 -117.678 -120.058 -118.771 -121.721 0 -4.53522 0 -5.97756 0 -5.97756 0 -4.92613 0 -4.92613 0 -4.61251 -4.92613 -9.07333 -4.61251 -10.1118 0 -4.61251 0 -4.85944 -4.61251 -10.1118 -4.85944 -10.614 -144.821 -146.286 -148.329 -150.188 -113.875 -110.223 -113.913 -110.765 -110.223 -106.938 -110.765 -107.812 -113.913 -110.765 -113.698 -110.794 -110.765 -107.812 -110.794 -108.966 -102.717 -99.4909 -104.263 -100.82 -96.9999 -94.2994 -97.7734 -95.3922 -99.4909 -97.7734 -100.82 -98.0434 -97.7734 -95.3922 -98.0434 -96.3969 -104.263 -100.82 -105.615 -102.474 -105.615 -102.474 -106.472 -103.683 -100.82 -98.0434 -102.474 -99.0258 -102.474 -99.0258 -103.683 -101.06 -99.0258 -97.1648 -101.06 -98.0926 -94.2994 -92.1351 -95.3922 -92.6837 -95.3922 -92.6837 -96.3969 -93.9629 -96.3969 -93.9629 -97.1648 -94.3769 -97.1648 -94.3769 -98.0926 -94.8238 -107.647 -106.472 -108.998 -106.405 -106.472 -103.683 -106.405 -104.356 -108.998 -106.405 -109.118 -106.892 -106.405 -104.356 -106.892 -103.031 -103.683 -101.06 -104.356 -101.65 -101.06 -98.0926 -101.65 -98.663 -106.892 -103.031 -105.073 -101.842 -105.073 -101.842 -105.449 -103.171 -98.0926 -94.8238 -98.663 -95.5293 -98.663 -95.5293 -98.5826 -96.6491 -98.1675 -95.9931 -100.163 -95.2458 -111.568 -109.517 -112.75 -110.601 -109.517 -108.436 -110.601 -109.883 -112.75 -110.601 -113.405 -112.017 -113.405 -112.017 -113.825 -113.451 -113.451 -112.357 -112.927 -112.549 -106.144 -103.857 -107.875 -105.075 -100.163 -95.2458 -99.8078 -96.7049 -99.8078 -96.7049 -100.326 -97.8799 -100.326 -97.8799 -101.621 -98.0295 -101.621 -98.0295 -102.024 -98.2487 -108.436 -107.875 -109.883 -108.482 -107.875 -105.075 -108.482 -105.749 -109.883 -108.482 -112.144 -109.118 -108.482 -105.749 -109.118 -106.217 -105.749 -103.333 -106.217 -103.408 -112.144 -109.118 -112.357 -110.027 -109.118 -106.217 -110.027 -107.633 -112.357 -110.027 -112.549 -111.416 -110.027 -107.633 -111.416 -108.714 -106.217 -103.408 -107.633 -105.082 -107.633 -105.082 -108.714 -106.617 -116.464 -117 -116.929 -115.896 -111.416 -108.714 -111.573 -109.658 -111.802 -111.573 -113.094 -112.17 -108.714 -106.617 -109.658 -106.065 -106.065 -104.206 -104.787 -104.222 -113.094 -112.17 -113.408 -111.917 -107.287 -104.787 -107.149 -105.649 -104.787 -104.222 -105.649 -104.447 -107.149 -105.649 -108.515 -106.554 -112.671 -111.377 -111.767 -110.377 -111.767 -110.377 -111.299 -109.462 -110.377 -108.003 -109.462 -107.956 -106.554 -106.151 -106.231 -106.356 -108.003 -106.231 -107.956 -106.408 -106.231 -106.356 -106.408 -105.44 -111.299 -109.462 -110.502 -108.871 -115.764 -116.212 -116.537 -116.894 -116.537 -116.894 -116.668 -116.676 -115.266 -115.978 -114.951 -114.912 -115.978 -116.098 -114.912 -115.224 -101.558 -104.409 -101.106 -103.882 -104.409 -106.695 -103.882 -106.468 -111.875 -113.094 -112.867 -114.272 -112.109 -112.169 -112.744 -113.177 -112.169 -112.666 -113.177 -112.662 -112.666 -113.713 -112.662 -112.766 -112.662 -112.766 -113.203 -112.341 -112.766 -112.261 -112.341 -110.755 -112.261 -112.377 -110.755 -112.247 -112.377 -113.828 -112.247 -114.175 -113.828 -115.164 -114.175 -115.835 -115.111 -116.387 -115.868 -117.178 -115.164 -115.868 -115.835 -117.236 -115.868 -117.178 -117.236 -118.343 -117.178 -117.809 -118.343 -119.005 -117.809 -118.253 -119.005 -119.97 -118.253 -118.573 -119.97 -120.73 -119.005 -119.97 -120.559 -121.946 -119.97 -120.73 -121.946 -123.618 -120.73 -120.203 -123.618 -125.987 -121.946 -123.618 -123.341 -125.878 -123.618 -125.987 -125.878 -129.384 -123.341 -125.878 -125.829 -127.67 -125.878 -129.384 -127.67 -129.63 -105.446 -106.771 -103.061 -106.437 -103.061 -106.437 -101.569 -103.761 -96.2088 -97.8184 -96.5668 -99.1914 -148.54 -147.709 -149.636 -149.209 -151.836 -151.926 -153.039 -154.202 -151.926 -151.888 -154.202 -154.756 -97.8184 -101.106 -99.1914 -102.085 -101.106 -103.882 -102.085 -104.129 -103.882 -106.468 -104.129 -106.305 -104.129 -106.305 -104.942 -107.039 -155.273 -157.236 -156.111 -158.942 -102.775 -106.239 -102.945 -105.889 -111.167 -113.688 -110.378 -113.106 -157.236 -159.633 -158.942 -161.276 -160.357 -163.252 -161.55 -165.148 -113.106 -114.611 -112.698 -114.886 -114.611 -115.961 -114.886 -117.833 -114.886 -117.833 -115.26 -118.138 -126.856 -129.721 -128.397 -131.884 -129.721 -133.851 -131.884 -134.598 -123.41 -127.164 -124.606 -129.845 -132.427 -134.416 -133.551 -135.92 -130.185 -131.977 -128.714 -133.415 -83.7476 -81.7078 -84.6873 -83.834 -81.7078 -81.4328 -83.834 -83.1728 -84.6873 -83.834 -87.1952 -85.9016 -87.1952 -85.9016 -89.2542 -88.2503 -83.834 -83.1728 -85.9016 -85.3715 -83.1728 -82.7265 -85.3715 -85.459 -85.9016 -85.3715 -88.2503 -86.9829 -85.3715 -85.459 -86.9829 -86.7348 -79.4986 -79.7762 -83.4973 -81.7583 -88.2503 -86.9829 -89.9475 -89.8491 -86.9829 -86.7348 -89.8491 -86.778 -89.8491 -86.778 -89.5263 -89.6449 -89.5263 -89.6449 -89.741 -89.6376 -89.0844 -89.741 -92.705 -92.7955 -89.741 -89.6376 -92.7955 -92.2282 -86.778 -85.2908 -89.6449 -90.0422 -85.2908 -84.917 -90.0422 -89.2553 -84.917 -84.7315 -89.2553 -87.9025 -89.6376 -89.6623 -92.2282 -91.76 -89.2553 -87.9025 -91.2251 -90.2654 -91.22