# vtk DataFile Version 3.0
#This file was generated by the deal.II library on 2016/5/13 at 16:44:25
ASCII
DATASET UNSTRUCTURED_GRID

POINTS 52508 double
187500 -87500 0
200000 -87500 0
187500 -75000 0
200000 -75000 0
187500 -62500 0
200000 -62500 0
187500 -50000 0
200000 -50000 0
175000 -50000 0
187500 -50000 0
175000 -37500 0
187500 -37500 0
187500 -50000 0
200000 -50000 0
187500 -37500 0
200000 -37500 0
131250 -81250 0
137500 -81250 0
131250 -75000 0
137500 -75000 0
137500 -81250 0
143750 -81250 0
137500 -75000 0
143750 -75000 0
168750 -12500 0
175000 -12500 0
168750 -6250 0
175000 -6250 0
137500 -68750 0
143750 -68750 0
137500 -62500 0
143750 -62500 0
131250 -56250 0
137500 -56250 0
131250 -50000 0
137500 -50000 0
137500 -62500 0
143750 -62500 0
137500 -56250 0
143750 -56250 0
175000 -100000 0
181250 -100000 0
175000 -93750 0
181250 -93750 0
181250 -93750 0
187500 -93750 0
181250 -87500 0
187500 -87500 0
193750 -100000 0
200000 -100000 0
193750 -93750 0
200000 -93750 0
187500 -93750 0
193750 -93750 0
187500 -87500 0
193750 -87500 0
193750 -93750 0
200000 -93750 0
193750 -87500 0
200000 -87500 0
181250 -87500 0
187500 -87500 0
181250 -81250 0
187500 -81250 0
175000 -81250 0
181250 -81250 0
175000 -75000 0
181250 -75000 0
181250 -81250 0
187500 -81250 0
181250 -75000 0
187500 -75000 0
162500 -25000 0
168750 -25000 0
162500 -18750 0
168750 -18750 0
168750 -25000 0
175000 -25000 0
168750 -18750 0
175000 -18750 0
162500 -18750 0
168750 -18750 0
162500 -12500 0
168750 -12500 0
168750 -18750 0
175000 -18750 0
168750 -12500 0
175000 -12500 0
175000 -75000 0
181250 -75000 0
175000 -68750 0
181250 -68750 0
181250 -75000 0
187500 -75000 0
181250 -68750 0
187500 -68750 0
175000 -68750 0
181250 -68750 0
175000 -62500 0
181250 -62500 0
181250 -68750 0
187500 -68750 0
181250 -62500 0
187500 -62500 0
156250 -37500 0
162500 -37500 0
156250 -31250 0
162500 -31250 0
162500 -37500 0
168750 -37500 0
162500 -31250 0
168750 -31250 0
168750 -37500 0
175000 -37500 0
168750 -31250 0
175000 -31250 0
162500 -31250 0
168750 -31250 0
162500 -25000 0
168750 -25000 0
175000 -37500 0
181250 -37500 0
175000 -31250 0
181250 -31250 0
181250 -37500 0
187500 -37500 0
181250 -31250 0
187500 -31250 0
175000 -31250 0
181250 -31250 0
175000 -25000 0
181250 -25000 0
181250 -31250 0
187500 -31250 0
181250 -25000 0
187500 -25000 0
187500 -25000 0
193750 -25000 0
187500 -18750 0
193750 -18750 0
150000 -62500 0
156250 -62500 0
150000 -56250 0
156250 -56250 0
156250 -62500 0
162500 -62500 0
156250 -56250 0
162500 -56250 0
150000 -56250 0
156250 -56250 0
150000 -50000 0
156250 -50000 0
156250 -56250 0
162500 -56250 0
156250 -50000 0
162500 -50000 0
162500 -62500 0
168750 -62500 0
162500 -56250 0
168750 -56250 0
168750 -62500 0
175000 -62500 0
168750 -56250 0
175000 -56250 0
162500 -56250 0
168750 -56250 0
162500 -50000 0
168750 -50000 0
168750 -56250 0
175000 -56250 0
168750 -50000 0
175000 -50000 0
187500 -75000 0
193750 -75000 0
187500 -68750 0
193750 -68750 0
193750 -75000 0
200000 -75000 0
193750 -68750 0
200000 -68750 0
187500 -68750 0
193750 -68750 0
187500 -62500 0
193750 -62500 0
193750 -68750 0
200000 -68750 0
193750 -62500 0
200000 -62500 0
175000 -62500 0
181250 -62500 0
175000 -56250 0
181250 -56250 0
181250 -62500 0
187500 -62500 0
181250 -56250 0
187500 -56250 0
175000 -56250 0
181250 -56250 0
175000 -50000 0
181250 -50000 0
181250 -56250 0
187500 -56250 0
181250 -50000 0
187500 -50000 0
150000 -50000 0
156250 -50000 0
150000 -43750 0
156250 -43750 0
156250 -50000 0
162500 -50000 0
156250 -43750 0
162500 -43750 0
150000 -43750 0
156250 -43750 0
150000 -37500 0
156250 -37500 0
156250 -43750 0
162500 -43750 0
156250 -37500 0
162500 -37500 0
162500 -50000 0
168750 -50000 0
162500 -43750 0
168750 -43750 0
168750 -50000 0
175000 -50000 0
168750 -43750 0
175000 -43750 0
162500 -43750 0
168750 -43750 0
162500 -37500 0
168750 -37500 0
168750 -43750 0
175000 -43750 0
168750 -37500 0
175000 -37500 0
187500 -37500 0
193750 -37500 0
187500 -31250 0
193750 -31250 0
193750 -37500 0
200000 -37500 0
193750 -31250 0
200000 -31250 0
187500 -31250 0
193750 -31250 0
187500 -25000 0
193750 -25000 0
193750 -31250 0
200000 -31250 0
193750 -25000 0
200000 -25000 0
0 -100000 0
3125 -100000 0
0 -96875 0
3125 -96875 0
0 -93750 0
3125 -93750 0
0 -90625 0
3125 -90625 0
12500 -100000 0
15625 -100000 0
12500 -96875 0
15625 -96875 0
15625 -100000 0
18750 -100000 0
15625 -96875 0
18750 -96875 0
15625 -93750 0
18750 -93750 0
15625 -90625 0
18750 -90625 0
40625 -78125 0
43750 -78125 0
40625 -75000 0
43750 -75000 0
43750 -78125 0
46875 -78125 0
43750 -75000 0
46875 -75000 0
40625 -75000 0
43750 -75000 0
40625 -71875 0
43750 -71875 0
43750 -75000 0
46875 -75000 0
43750 -71875 0
46875 -71875 0
40625 -65625 0
43750 -65625 0
40625 -62500 0
43750 -62500 0
43750 -65625 0
46875 -65625 0
43750 -62500 0
46875 -62500 0
53125 -100000 0
56250 -100000 0
53125 -96875 0
56250 -96875 0
81250 -100000 0
84375 -100000 0
81250 -96875 0
84375 -96875 0
81250 -84375 0
84375 -84375 0
81250 -81250 0
84375 -81250 0
84375 -84375 0
87500 -84375 0
84375 -81250 0
87500 -81250 0
78125 -81250 0
81250 -81250 0
78125 -78125 0
81250 -78125 0
81250 -81250 0
84375 -81250 0
81250 -78125 0
84375 -78125 0
106250 -81250 0
109375 -81250 0
106250 -78125 0
109375 -78125 0
131250 -100000 0
134375 -100000 0
131250 -96875 0
134375 -96875 0
131250 -96875 0
134375 -96875 0
131250 -93750 0
134375 -93750 0
140625 -100000 0
143750 -100000 0
140625 -96875 0
143750 -96875 0
140625 -96875 0
143750 -96875 0
140625 -93750 0
143750 -93750 0
143750 -100000 0
146875 -100000 0
143750 -96875 0
146875 -96875 0
143750 -96875 0
146875 -96875 0
143750 -93750 0
146875 -93750 0
140625 -93750 0
143750 -93750 0
140625 -90625 0
143750 -90625 0
140625 -90625 0
143750 -90625 0
140625 -87500 0
143750 -87500 0
143750 -93750 0
146875 -93750 0
143750 -90625 0
146875 -90625 0
143750 -90625 0
146875 -90625 0
143750 -87500 0
146875 -87500 0
146875 -90625 0
150000 -90625 0
146875 -87500 0
150000 -87500 0
134375 -87500 0
137500 -87500 0
134375 -84375 0
137500 -84375 0
131250 -84375 0
134375 -84375 0
131250 -81250 0
134375 -81250 0
134375 -84375 0
137500 -84375 0
134375 -81250 0
137500 -81250 0
128125 -81250 0
131250 -81250 0
128125 -78125 0
131250 -78125 0
128125 -78125 0
131250 -78125 0
128125 -75000 0
131250 -75000 0
93750 -56250 0
96875 -56250 0
93750 -53125 0
96875 -53125 0
96875 -56250 0
100000 -56250 0
96875 -53125 0
100000 -53125 0
93750 -53125 0
96875 -53125 0
93750 -50000 0
96875 -50000 0
96875 -53125 0
100000 -53125 0
96875 -50000 0
100000 -50000 0
137500 -87500 0
140625 -87500 0
137500 -84375 0
140625 -84375 0
140625 -87500 0
143750 -87500 0
140625 -84375 0
143750 -84375 0
137500 -84375 0
140625 -84375 0
137500 -81250 0
140625 -81250 0
140625 -84375 0
143750 -84375 0
140625 -81250 0
143750 -81250 0
143750 -87500 0
146875 -87500 0
143750 -84375 0
146875 -84375 0
146875 -87500 0
150000 -87500 0
146875 -84375 0
150000 -84375 0
143750 -84375 0
146875 -84375 0
143750 -81250 0
146875 -81250 0
68750 -50000 0
71875 -50000 0
68750 -46875 0
71875 -46875 0
71875 -50000 0
75000 -50000 0
71875 -46875 0
75000 -46875 0
68750 -46875 0
71875 -46875 0
68750 -43750 0
71875 -43750 0
71875 -46875 0
75000 -46875 0
71875 -43750 0
75000 -43750 0
143750 -81250 0
146875 -81250 0
143750 -78125 0
146875 -78125 0
143750 -78125 0
146875 -78125 0
143750 -75000 0
146875 -75000 0
121875 -75000 0
125000 -75000 0
121875 -71875 0
125000 -71875 0
109375 -59375 0
112500 -59375 0
109375 -56250 0
112500 -56250 0
112500 -59375 0
115625 -59375 0
112500 -56250 0
115625 -56250 0
115625 -59375 0
118750 -59375 0
115625 -56250 0
118750 -56250 0
118750 -59375 0
121875 -59375 0
118750 -56250 0
121875 -56250 0
121875 -59375 0
125000 -59375 0
121875 -56250 0
125000 -56250 0
140625 -6250 0
143750 -6250 0
140625 -3125 0
143750 -3125 0
140625 -3125 0
143750 -3125 0
140625 0 0
143750 0 0
143750 -6250 0
146875 -6250 0
143750 -3125 0
146875 -3125 0
143750 -3125 0
146875 -3125 0
143750 0 0
146875 0 0
75000 -50000 0
78125 -50000 0
75000 -46875 0
78125 -46875 0
78125 -50000 0
81250 -50000 0
78125 -46875 0
81250 -46875 0
75000 -46875 0
78125 -46875 0
75000 -43750 0
78125 -43750 0
78125 -46875 0
81250 -46875 0
78125 -43750 0
81250 -43750 0
81250 -50000 0
84375 -50000 0
81250 -46875 0
84375 -46875 0
84375 -50000 0
87500 -50000 0
84375 -46875 0
87500 -46875 0
81250 -46875 0
84375 -46875 0
81250 -43750 0
84375 -43750 0
84375 -46875 0
87500 -46875 0
84375 -43750 0
87500 -43750 0
81250 -43750 0
84375 -43750 0
81250 -40625 0
84375 -40625 0
84375 -43750 0
87500 -43750 0
84375 -40625 0
87500 -40625 0
81250 -40625 0
84375 -40625 0
81250 -37500 0
84375 -37500 0
84375 -40625 0
87500 -40625 0
84375 -37500 0
87500 -37500 0
112500 -100000 0
115625 -100000 0
112500 -96875 0
115625 -96875 0
115625 -100000 0
118750 -100000 0
115625 -96875 0
118750 -96875 0
112500 -96875 0
115625 -96875 0
112500 -93750 0
115625 -93750 0
115625 -96875 0
118750 -96875 0
115625 -93750 0
118750 -93750 0
112500 -93750 0
115625 -93750 0
112500 -90625 0
115625 -90625 0
115625 -93750 0
118750 -93750 0
115625 -90625 0
118750 -90625 0
112500 -90625 0
115625 -90625 0
112500 -87500 0
115625 -87500 0
115625 -90625 0
118750 -90625 0
115625 -87500 0
118750 -87500 0
118750 -93750 0
121875 -93750 0
118750 -90625 0
121875 -90625 0
121875 -93750 0
125000 -93750 0
121875 -90625 0
125000 -90625 0
118750 -90625 0
121875 -90625 0
118750 -87500 0
121875 -87500 0
121875 -90625 0
125000 -90625 0
121875 -87500 0
125000 -87500 0
112500 -87500 0
115625 -87500 0
112500 -84375 0
115625 -84375 0
115625 -87500 0
118750 -87500 0
115625 -84375 0
118750 -84375 0
112500 -84375 0
115625 -84375 0
112500 -81250 0
115625 -81250 0
115625 -84375 0
118750 -84375 0
115625 -81250 0
118750 -81250 0
112500 -81250 0
115625 -81250 0
112500 -78125 0
115625 -78125 0
115625 -81250 0
118750 -81250 0
115625 -78125 0
118750 -78125 0
112500 -78125 0
115625 -78125 0
112500 -75000 0
115625 -75000 0
115625 -78125 0
118750 -78125 0
115625 -75000 0
118750 -75000 0
118750 -81250 0
121875 -81250 0
[...]
POINT_DATA 52508
SCALARS velocity double 1
LOOKUP_TABLE default
115.954 115.456 116.371 116.342 115.215 114.405 115.219 115.187 115.597 115.219 114.825 115.04 115.219 115.187 115.04 115.658 118.511 119.49 119.644 119.527 119.49 120.364 119.527 120.041 111.562 112.029 110.281 109.826 118.975 119.11 119.02 119.081 119.682 119.681 120.957 120.744 119.02 119.081 119.681 119.353 116.348 115.789 116.539 115.903 115.903 115.36 116.165 115.954 113.796 112.975 114.676 114.262 115.36 114.676 115.954 115.705 114.676 114.262 115.705 115.456 116.165 115.954 116.345 116.163 116.413 116.345 116.02 116.112 116.345 116.163 116.112 116.371 113.534 113.881 112.289 112.775 113.881 114.303 112.775 113.436 112.289 112.775 111.326 111.562 112.775 113.436 111.562 112.029 116.02 116.112 116.621 116.03 116.112 116.371 116.03 115.723 116.621 116.03 116.17 116.044 116.03 115.723 116.044 115.215 115.58 115.049 114.744 114.393 115.049 114.754 114.393 114.756 114.754 114.825 114.756 114.652 114.393 114.756 113.534 113.881 114.825 114.932 114.652 114.865 114.932 115.04 114.865 115.075 114.652 114.865 114.303 114.74 114.865 115.075 114.74 114.78 114.78 115.403 114.31 115.007 118.602 118.074 118.44 117.151 118.074 117.953 117.151 116.723 118.44 117.151 117.66 116.774 117.151 116.723 116.774 116.166 117.953 116.719 116.723 116.273 116.719 116.17 116.273 115.882 116.723 116.273 116.166 115.851 116.273 115.882 115.851 115.597 116.371 116.356 115.723 115.273 116.356 116.342 115.273 115.196 115.723 115.273 115.215 114.81 115.273 115.196 114.81 114.405 116.17 116.044 115.882 115.547 116.044 115.215 115.547 115.217 115.882 115.547 115.597 115.408 115.547 115.217 115.408 115.219 117.66 116.774 117.378 116.387 116.774 116.166 116.387 115.749 117.378 116.387 117.371 115.58 116.387 115.749 115.58 115.049 116.166 115.851 115.749 115.498 115.851 115.597 115.498 115.211 115.749 115.498 115.049 114.754 115.498 115.211 114.754 114.825 115.04 115.349 115.075 115.431 115.349 115.658 115.431 115.78 115.075 115.431 114.78 115.403 115.431 115.78 115.403 115.941 137.514 130.936 137.967 131.037 138.134 131.475 138.869 134.154 120.38 115.231 120.633 115.969 115.231 109.681 115.969 110.505 116.677 111.657 117.27 112.01 85.8426 87.2549 88.4116 90.1444 87.2549 88.2275 90.1444 91.6024 88.4116 90.1444 91.9311 93.7664 90.1444 91.6024 93.7664 94.3458 95.8309 97.7847 97.7954 99.5486 97.7847 100.024 99.5486 101.326 66.779 70.2817 70.398 73.5823 87.0875 91.2237 91.7951 95.5742 106.653 109.429 108.566 111.193 109.429 112.796 111.193 115.161 103.713 108.566 105.309 109.311 108.566 111.193 109.311 113.144 128.912 128.675 129.327 129.093 124.291 125.106 123.751 124.903 123.751 124.903 123.831 124.726 123.576 122.356 122.488 122.401 122.488 122.401 121.663 121.583 122.356 123.222 122.401 122.522 122.401 122.522 121.583 121.992 121.663 121.583 120.556 120.834 120.556 120.834 119.303 120.465 121.583 121.992 120.834 120.515 120.834 120.515 120.465 120.651 120.515 119.433 120.651 120.533 120.19 119.139 118.752 119.472 119.016 118.752 118.511 119.001 118.752 119.472 119.001 119.49 118.83 118.511 119.064 119.077 119.064 119.077 119.455 119.644 129.783 129.175 128.332 128.155 129.175 128.018 128.155 128.04 128.332 128.155 127.783 127.224 128.155 128.04 127.224 126.851 119.139 119.303 119.472 119.772 119.303 120.465 119.772 120.423 119.472 119.772 119.49 119.927 119.772 120.423 119.927 120.364 120.465 120.651 120.423 121.692 120.651 120.533 121.692 121.57 120.423 121.692 120.364 121.383 121.289 123.231 119.288 121.354 123.231 125.141 121.354 123.338 119.288 121.354 117.41 119.638 121.354 123.338 119.638 121.499 120.364 121.383 120.202 120.964 120.202 120.964 120.041 119.756 123.4 121.013 123.298 121.9 123.25 121.62 122.097 122.157 121.62 120.423 122.157 121.411 120.423 119.504 121.411 120.679 119.504 118.863 120.679 120.038 118.863 119.05 120.038 119.434 102.395 102.177 101.175 101.82 101.175 101.82 99.0728 101.884 102.177 104.028 101.82 102.633 101.82 102.633 101.884 101.092 125.141 126.365 123.338 124.101 126.365 127.508 124.101 124.958 123.338 124.101 121.499 122.052 124.101 124.958 122.052 121.943 127.508 128.419 124.958 126.19 128.419 129.596 126.19 127.88 124.958 126.19 121.943 123.328 126.19 127.88 123.328 125.823 121.943 123.328 119.3 121.709 123.328 125.823 121.709 123.889 119.3 121.709 117.407 120.065 121.709 123.889 120.065 121.699 122.758 124.356 123.15 124.926 124.356 127.545 124.926 126.927 123.15 124.926 123.94 125.072 124.926 126.927 125.072 125.708 123.94 125.072 126.046 126.105 125.072 125.708 126.105 126.063 126.046 126.105 127.963 127.149 126.105 126.063 127.149 126.939 125.708 123.692 126.063 124.622 123.692 122.418 124.622 123.263 126.063 124.622 126.939 125.36 124.622 123.263 125.36 123.525 127.963 127.149 128.003 127.434 127.149 126.939 127.434 126.936 128.003 127.434 128.236 127.648 127.434 126.936 127.648 126.598 128.236 127.648 128.341 127.251 127.648 126.598 127.251 126.154 128.341 127.251 127.996 127.414 127.251 126.154 127.414 125.622 126.598 122.844 126.154 123.589 122.844 120.197 123.589 120.637 126.154 123.589 125.622 123.4 123.589 120.637 123.4 121.013 131.915 129.704 131.838 130.326 129.704 128.392 130.326 128.848 131.838 130.326 131.819 130.722 130.326 128.848 130.722 129.331 128.392 127.606 128.848 127.933 127.606 127.996 127.933 126.891 128.848 127.933 129.331 128.331 127.933 126.891 128.331 126.767 124.661 121.729 126.218 122.583 121.729 120.317 122.583 119.311 126.218 122.583 128.05 123.52 122.583 119.311 123.52 118.765 125.705 124.689 126.402 125.227 124.689 124.866 125.227 124.225 126.402 125.227 127.35 126.129 125.227 124.225 126.129 123.006 123.006 121.613 124.808 124.182 121.613 122.07 124.182 123.477 124.808 124.182 127.445 126.893 124.182 123.477 126.893 124.661 129.596 128.742 127.88 127.503 128.742 127.783 127.503 127.72 127.88 127.503 125.823 126.938 127.503 127.72 126.938 127.269 127.783 127.224 127.72 127.087 127.224 126.851 127.087 126.135 127.72 127.087 127.269 126.641 127.087 126.135 126.641 126.311 128.018 125.327 128.04 125.732 125.327 123.232 125.732 124.031 128.04 125.732 126.851 125.657 125.732 124.031 125.657 124.446 123.232 122.097 124.031 122.985 122.097 122.157 122.985 122.089 124.031 122.985 124.446 123.322 122.985 122.089 123.322 122.35 122.157 121.411 122.089 121.597 121.411 120.679 121.597 120.77 122.089 121.597 122.35 121.538 121.597 120.77 121.538 120.643 120.679 120.038 120.77 119.962 120.038 119.434 119.962 119.314 120.77 119.962 120.643 120.105 119.962 119.314 120.105 120.058 121.815 119.211 120.574 118.356 119.211 117.196 118.356 116.693 120.574 118.356 119.992 118.025 118.356 116.693 118.025 116.195 117.196 115.372 116.693 115.288 115.372 114.289 115.288 114.048 116.693 115.288 116.195 115.009 115.288 114.048 115.009 114.061 119.992 118.025 119.433 118.513 118.025 116.195 118.513 116.676 119.433 118.513 120.533 119.065 118.513 116.676 119.065 118.512 116.195 115.009 116.676 116.03 115.009 114.061 116.03 115.097 116.676 116.03 118.512 117.646 116.03 115.097 117.646 116.403 120.533 119.065 121.57 119.814 119.065 118.512 119.814 118.701 121.57 119.814 121.201 120.29 119.814 118.701 120.29 118.638 118.512 117.646 118.701 117.435 117.646 116.403 117.435 115.883 118.701 117.435 118.638 117.387 117.435 115.883 117.387 115.735 121.201 120.29 120.154 119.405 120.29 118.638 119.405 118.861 120.154 119.405 119.248 119.288 119.405 118.861 119.288 118.921 118.638 117.387 118.861 118.05 117.387 115.735 118.05 116.13 118.861 118.05 118.921 118.04 118.05 116.13 118.04 117.021 126.851 125.657 126.135 125.517 125.657 124.446 125.517 124.751 126.135 125.517 126.311 126.028 125.517 124.751 126.028 125.472 124.446 123.322 124.751 123.948 123.322 122.35 123.948 123.096 124.751 123.948 125.472 124.899 123.948 123.096 124.899 123.871 112.172 113.437 110.741 112.197 113.437 113.477 112.197 112.479 110.741 112.197 111.214 112.121 112.197 112.479 112.121 112.001 123.464 121.8 123.887 122.672 121.8 120.827 122.672 122.103 123.887 122.672 124.41 124.239 122.672 122.103 124.239 124.032 120.827 120.21 122.103 121.932 120.21 119.576 121.932 120.453 122.103 121.932 124.032 125.213 121.932 120.453 125.213 121.622 119.576 118.752 120.453 118.45 118.752 117.371 118.45 116.775 120.453 118.45 121.622 117.297 118.45 116.775 117.297 115.805 121.622 117.297 117.993 115.539 117.297 115.805 115.539 114.561 117.993 115.539 112.172 113.437 115.539 114.561 113.437 113.477 113.477 113.196 112.479 112.858 113.196 113.188 112.858 113.002 112.479 112.858 112.001 112.499 112.858 113.002 112.499 112.715 113.188 113.34 113.002 113.105 113.34 113.534 113.105 112.911 113.002 113.105 112.715 112.298 113.105 112.911 112.298 112.289 112.001 112.499 110.294 110.885 112.499 112.715 110.885 111.217 110.294 110.885 109.694 109.667 110.885 111.217 109.667 110.275 112.715 112.298 111.217 111.484 112.298 112.289 111.484 111.807 111.217 111.484 110.275 110.561 111.484 111.807 110.561 111.326 114.289 115.102 114.048 114.93 115.102 115.48 114.93 115.649 114.048 114.93 114.061 115.129 114.93 115.649 115.129 116.076 115.48 115.753 115.649 116.479 115.753 116.348 116.479 116.443 115.649 116.479 116.076 116.432 116.479 116.443 116.432 116.539 114.061 115.129 115.097 114.491 115.129 116.076 114.491 115.759 115.097 114.491 116.403 116.323 114.491 115.759 116.323 115.805 116.076 116.432 115.759 116.21 116.432 116.539 116.21 116.431 115.759 116.21 115.805 116.388 116.21 116.431 116.388 117.218 109.694 109.667 107.872 108.52 109.667 110.275 108.52 109.313 107.872 108.52 105.609 107.085 108.52 109.313 107.085 108.478 110.275 110.561 109.313 110.162 110.561 111.326 110.162 110.859 109.313 110.162 108.478 109.788 110.162 110.859 109.788 110.675 105.609 107.085 103.85 105.666 107.085 108.478 105.666 107.326 103.85 105.666 101.602 104.845 105.666 107.326 104.845 106.862 108.478 109.788 107.326 109.065 109.788 110.675 109.065 110.335 107.326 109.065 106.862 108.837 109.065 110.335 108.837 110.171 116.403 116.323 115.883 116.145 116.323 115.805 116.145 116.138 115.883 116.145 115.735 116.135 116.145 116.138 116.135 116.65 115.805 116.388 116.138 116.409 116.388 117.218 116.409 117.172 116.138 116.409 116.65 116.427 116.409 117.172 116.427 116.413 115.735 116.135 116.13 117.026 116.135 116.65 117.026 117.168 116.13 117.026 117.021 117.579 117.026 117.168 117.579 117.168 116.65 116.427 117.168 116.714 116.427 116.413 116.714 116.217 117.168 116.714 117.168 116.793 116.714 116.217 116.793 116.02 122.35 121.538 123.096 122.406 121.538 120.643 122.406 121.774 123.096 122.406 123.871 123.077 122.406 121.774 123.077 122.608 120.643 120.105 121.774 121.371 120.105 120.058 121.371 121.049 121.774 121.371 122.608 122.185 121.371 121.049 122.185 121.716 123.871 123.077 124.285 123.636 123.077 122.608 123.636 122.995 124.285 123.636 124.557 124.279 123.636 122.995 124.279 123.432 122.608 122.185 122.995 122.537 122.185 121.716 122.537 123.181 122.995 122.537 123.432 123.08 122.537 123.181 123.08 124.222 116.305 111.549 116.509 113.456 111.549 109.769 113.456 111.103 116.509 113.456 116.255 114.032 113.456 111.103 114.032 112.103 109.769 109.57 111.103 110.53 109.57 106.468 110.53 109.256 111.103 110.53 112.103 111.39 110.53 109.256 111.39 111.007 116.255 114.032 113.226 112.912 114.032 112.103 112.912 112.194 113.226 112.912 110.124 111.881 112.912 112.194 111.881 112.715 112.103 111.39 112.194 111.589 111.39 111.007 111.589 111.134 112.194 111.589 112.715 111.767 111.589 111.134 111.767 110.567 120.058 120.772 121.049 121.236 120.772 120.957 121.236 121.21 121.049 121.236 121.716 121.899 121.236 121.21 121.899 121.861 120.957 120.851 121.21 120.985 120.851 120.744 120.985 120.546 121.21 120.985 121.861 121.368 120.985 120.546 121.368 120.488 121.716 121.899 123.181 122.98 121.899 121.861 122.98 122.441 123.181 122.98 124.222 124.423 122.98 122.441 124.423 123.464 121.861 121.368 122.441 121.595 121.368 120.488 121.595 120.725 122.441 121.595 123.464 121.8 121.595 120.725 121.8 120.827 120.744 120.445 120.546 120.032 120.445 119.86 120.032 119.152 120.546 120.032 120.488 119.508 120.032 119.152 119.508 118.976 119.86 118.941 119.152 118.411 118.941 117.66 118.411 117.519 119.152 118.411 118.976 118.442 118.411 117.519 118.442 117.378 120.488 119.508 120.725 119.892 119.508 118.976 119.892 119.134 120.725 119.892 120.827 120.21 119.892 119.134 120.21 119.576 118.976 118.442 119.134 118.458 118.442 117.378 118.458 117.374 119.134 118.458 119.576 118.752 118.458 117.374 118.752 117.371 111.326 111.444 110.859 110.933 111.444 111.562 110.933 110.922 110.859 110.933 110.675 110.539 110.933 110.922 110.539 110.281 110.675 110.539 110.335 110.273 110.539 110.281 110.273 110.022 110.335 110.273 110.171 110.25 110.273 110.022 110.25 109.876 110.281 110.054 110.022 109.536 110.054 109.826 109.536 108.438 110.022 109.536 109.876 109.056 109.536 108.438 109.056 107.766 121.013 119.455 121.9 120.411 119.455 119.644 120.411 119.776 121.9 120.411 121.261 120.506 120.411 119.776 120.506 119.784 119.644 119.586 119.776 119.523 119.586 119.527 119.523 119.153 119.776 119.523 119.784 119.247 119.523 119.153 119.247 118.975 121.261 120.506 120.488 120.057 120.506 119.784 120.057 119.395 120.488 120.057 120.2 119.67 120.057 119.395 119.67 119.22 119.784 119.247 119.395 119.123 119.247 118.975 119.123 118.998 119.395 119.123 119.22 119.221 119.123 118.998 119.221 119.02 119.527 119.784 119.153 119.401 119.784 120.041 119.401 119.45 119.153 119.401 118.975 119.042 119.401 119.45 119.042 119.11 120.041 119.756 119.45 119.361 119.756 119.248 119.361 119.287 119.45 119.361 119.11 119.082 119.361 119.287 119.082 118.997 119.11 119.082 119.095 119.015 119.082 118.997 119.015 118.897 119.095 119.015 119.081 118.913 119.015 118.897 118.913 118.602 120.2 119.67 119.05 119.525 119.67 119.22 119.525 119.425 119.05 119.525 119.434 119.615 119.525 119.425 119.615 119.682 119.22 119.221 119.425 119.451 119.221 119.02 119.451 119.351 119.425 119.451 119.682 119.681 119.451 119.351 119.681 119.681 119.434 119.615 119.314 120.011 119.615 119.682 120.011 120.319 119.314 120.011 120.058 120.772 120.011 120.319 120.772 120.957 119.081 118.913 119.217 118.875 118.913 118.602 118.875 118.521 119.217 118.875 119.353 118.912 118.875 118.521 118.912 118.44 119.681 119.517 120.213 119.918 119.517 119.353 119.918 119.506 120.213 119.918 120.744 120.445 119.918 119.506 120.445 119.86 119.353 118.912 119.506 118.869 118.912 118.44 118.869 118.05 119.506 118.869 119.86 118.941 118.869 118.05 118.941 117.66 115.789 115.479 115.846 115.58 115.479 115.314 115.58 115.369 115.846 115.58 115.903 115.632 115.58 115.369 115.632 115.36 116.539 116.221 116.431 116.449 116.221 115.903 116.449 116.034 116.431 116.449 117.218 116.586 116.449 116.034 116.586 116.165 115.314 114.692 115.369 114.78 114.692 113.796 114.78 114.236 115.369 114.78 115.36 115.018 114.78 114.236 115.018 114.676 117.218 116.586 117.172 116.606 116.586 116.165 116.606 116.255 117.172 116.606 116.413 116.379 116.606 116.255 116.379 116.345 119.248 119.288 119.287 118.924 119.288 118.921 118.924 118.663 119.287 118.924 118.997 118.75 118.924 118.663 118.75 118.34 118.921 118.04 118.663 118.137 118.04 117.021 118.137 117.546 118.663 118.137 118.34 117.762 118.137 117.546 117.762 117.532 118.997 118.75 118.897 118.499 118.75 118.34 118.499 118 118.897 118.499 118.602 118.338 118.499 118 118.338 118.074 118.34 117.762 118 117.8 117.762 117.532 117.8 117.724 118 117.8 118.074 118.013 117.8 117.724 118.013 117.953 117.021 117.579 117.546 117.366 117.579 117.168 117.366 117.248 117.546 117.366 117.532 117.477 117.366 117.248 117.477 117.325 117.168 116.793 117.248 116.843 116.793 116.02 116.843 116.32 117.248 116.843 117.325 117.024 116.843 116.32 117.024 116.621 117.532 117.477 117.724 117.436 117.477 117.325 117.436 117.231 117.724 117.436 117.953 117.336 117.436 117.231 117.336 116.719 117.325 117.024 117.231 116.838 117.024 116.621 116.838 116.395 117.231 116.838 116.719 116.444 116.838 116.395 116.444 116.17 117.371 116.475 116.775 115.911 116.475 115.58 115.911 115.162 116.775 115.911 115.805 115.155 115.911 115.162 115.155 114.744 115.805 115.155 114.561 114.257 115.155 114.744 114.257 114.041 114.561 114.257 113.477 113.196 114.257 114.041 113.196 113.188 114.744 114.569 114.041 114.018 114.569 114.393 114.018 113.963 114.041 114.018 113.188 113.34 114.018 113.963 113.34 113.534 114.756 114.704 114.319 114.38 114.704 114.652 114.38 114.477 114.319 114.38 113.881 114.092 114.38 114.477 114.092 114.303 114.303 114.521 113.869 114.03 114.521 114.74 114.03 114.075 113.869 114.03 113.436 113.45 114.03 114.075 113.45 113.535 114.74 114.76 114.075 114.295 114.76 114.78 114.295 114.545 114.075 114.295 113.535 113.79 114.295 114.545 113.79 114.31 113.436 113.45 112.732 112.757 113.45 113.535 112.757 112.778 112.732 112.757 112.029 112.156 112.757 112.778 112.156 112.257 113.535 113.79 112.778 113.125 113.79 114.31 113.125 113.286 112.778 113.125 112.257 112.64 113.125 113.286 112.64 112.498 115.403 115.672 115.205 115.334 115.672 115.941 115.334 115.009 115.205 115.334 115.007 114.337 115.334 115.009 114.337 114.034 114.31 114.659 113.286 113.568 114.659 115.007 113.568 113.715 113.286 113.568 112.498 112.57 113.568 113.715 112.57 112.905 115.007 114.337 113.715 113.69 114.337 114.034 113.69 113.735 113.715 113.69 112.905 113.011 113.69 113.735 113.011 113.137 112.029 112.156 110.927 110.808 112.156 112.257 110.808 110.667 110.927 110.808 109.826 109.477 110.808 110.667 109.477 109.084 112.257 112.64 110.667 110.661 112.64 112.498 110.661 110.645 110.667 110.661 109.084 108.833 110.661 110.645 108.833 108.957 109.826 109.477 108.438 108.278 109.477 109.084 108.278 108.228 108.438 108.278 107.766 107.298 108.278 108.228 107.298 107.334 109.084 108.833 108.228 107.792 108.833 108.957 107.792 107.538 108.228 107.792 107.334 106.526 107.792 107.538 106.526 106.101 112.498 112.57 110.645 111.966 112.57 112.905 111.966 113.071 110.645 111.966 108.957 111.163 111.966 113.071 111.163 113.276 112.905 113.011 113.071 114.216 113.011 113.137 114.216 115.321 113.071 114.216 113.276 115.471 114.216 115.321 115.471 117.606 108.957 111.163 107.538 110.466 111.163 113.276 110.466 113.272 107.538 110.466 106.101 109.82 110.466 113.272 109.82 113.374 113.276 115.471 113.272 116.445 115.471 117.606 116.445 119.573 113.272 116.445 113.374 117.51 116.445 119.573 117.51 121.573 105.993 107.901 107.133 108.267 107.901 110.141 108.267 110.121 107.133 108.267 106.558 108.343 108.267 110.121 108.343 109.952 130.936 127.52 130.986 127.387 130.986 127.387 131.037 128.072 137.967 134.502 137.979 134.614 134.502 131.037 134.614 130.776 137.979 134.614 138.134 134.805 134.614 130.776 134.805 131.475 126.435 124.362 126.428 125.274 124.362 122.509 125.274 122.882 122.509 120.38 122.882 120.506 125.274 122.882 126.071 123.066 122.882 120.506 123.066 120.633 127.601 126.071 128.581 125.328 128.581 125.328 128.69 125.545 126.071 123.066 125.328 122.318 123.066 120.633 122.318 120.66 125.328 122.318 125.545 122.392 102.828 104.505 103.74 105.875 104.505 106.558 105.875 108.005 103.74 105.875 104.015 106.606 105.875 108.005 106.606 109.239 131.475 130.563 132.815 131.574 132.815 131.574 134.154 132.789 131.574 130.609 132.789 130.851 138.869 136.511 138.918 137.42 136.511 134.154 137.42 135.322 134.154 132.789 135.322 133.707 132.789 130.851 133.707 131.064 133.707 131.064 134.176 131.818 128.69 125.545 128.335 125.624 130.609 128.335 130.851 128.282 128.335 125.624 128.282 125.962 125.545 122.392 125.624 122.571 125.624 122.571 125.962 123.336 130.851 128.282 131.064 128.569 128.282 125.962 128.569 126.618 131.064 128.569 131.818 129.786 125.962 123.336 126.618 124.392 81.7705 83.4564 81.8882 83.9804 83.4564 85.307 83.9804 86.1348 81.8882 83.9804 81.6652 84.4788 83.9804 86.1348 84.4788 87.0284 85.307 85.1037 86.1348 86.5843 85.1037 84.7983 86.5843 87.2597 86.1348 86.5843 87.0284 87.8082 86.5843 87.2597 87.8082 89.0136 120.633 118.301 120.66 118.49 118.301 115.969 118.49 116.028 120.66 118.49 121.092 118.447 118.49 116.028 118.447 116.677 115.969 11