# vtk DataFile Version 3.0
#This file was generated by the deal.II library on 2016/5/13 at 16:44:19
ASCII
DATASET UNSTRUCTURED_GRID

POINTS 26120 double
162500 -25000 0
175000 -25000 0
162500 -12500 0
175000 -12500 0
150000 -62500 0
162500 -62500 0
150000 -50000 0
162500 -50000 0
162500 -62500 0
175000 -62500 0
162500 -50000 0
175000 -50000 0
187500 -75000 0
200000 -75000 0
187500 -62500 0
200000 -62500 0
175000 -62500 0
187500 -62500 0
175000 -50000 0
187500 -50000 0
187500 -62500 0
200000 -62500 0
187500 -50000 0
200000 -50000 0
150000 -50000 0
162500 -50000 0
150000 -37500 0
162500 -37500 0
162500 -50000 0
175000 -50000 0
162500 -37500 0
175000 -37500 0
175000 -50000 0
187500 -50000 0
175000 -37500 0
187500 -37500 0
187500 -50000 0
200000 -50000 0
187500 -37500 0
200000 -37500 0
187500 -37500 0
200000 -37500 0
187500 -25000 0
200000 -25000 0
93750 -56250 0
100000 -56250 0
93750 -50000 0
100000 -50000 0
68750 -50000 0
75000 -50000 0
68750 -43750 0
75000 -43750 0
75000 -50000 0
81250 -50000 0
75000 -43750 0
81250 -43750 0
81250 -50000 0
87500 -50000 0
81250 -43750 0
87500 -43750 0
81250 -43750 0
87500 -43750 0
81250 -37500 0
87500 -37500 0
112500 -100000 0
118750 -100000 0
112500 -93750 0
118750 -93750 0
112500 -93750 0
118750 -93750 0
112500 -87500 0
118750 -87500 0
118750 -93750 0
125000 -93750 0
118750 -87500 0
125000 -87500 0
112500 -87500 0
118750 -87500 0
112500 -81250 0
118750 -81250 0
112500 -81250 0
118750 -81250 0
112500 -75000 0
118750 -75000 0
118750 -81250 0
125000 -81250 0
118750 -75000 0
125000 -75000 0
100000 -75000 0
106250 -75000 0
100000 -68750 0
106250 -68750 0
106250 -75000 0
112500 -75000 0
106250 -68750 0
112500 -68750 0
112500 -25000 0
118750 -25000 0
112500 -18750 0
118750 -18750 0
100000 -37500 0
106250 -37500 0
100000 -31250 0
106250 -31250 0
106250 -31250 0
112500 -31250 0
106250 -25000 0
112500 -25000 0
87500 -50000 0
93750 -50000 0
87500 -43750 0
93750 -43750 0
93750 -50000 0
100000 -50000 0
93750 -43750 0
100000 -43750 0
100000 -56250 0
106250 -56250 0
100000 -50000 0
106250 -50000 0
106250 -56250 0
112500 -56250 0
106250 -50000 0
112500 -50000 0
112500 -56250 0
118750 -56250 0
112500 -50000 0
118750 -50000 0
118750 -56250 0
125000 -56250 0
118750 -50000 0
125000 -50000 0
150000 -100000 0
156250 -100000 0
150000 -93750 0
156250 -93750 0
156250 -100000 0
162500 -100000 0
156250 -93750 0
162500 -93750 0
150000 -93750 0
156250 -93750 0
150000 -87500 0
156250 -87500 0
156250 -93750 0
162500 -93750 0
156250 -87500 0
162500 -87500 0
150000 -87500 0
156250 -87500 0
150000 -81250 0
156250 -81250 0
156250 -87500 0
162500 -87500 0
156250 -81250 0
162500 -81250 0
150000 -81250 0
156250 -81250 0
150000 -75000 0
156250 -75000 0
156250 -81250 0
162500 -81250 0
156250 -75000 0
162500 -75000 0
100000 -50000 0
106250 -50000 0
100000 -43750 0
106250 -43750 0
106250 -50000 0
112500 -50000 0
106250 -43750 0
112500 -43750 0
143750 -25000 0
150000 -25000 0
143750 -18750 0
150000 -18750 0
131250 -37500 0
137500 -37500 0
131250 -31250 0
137500 -31250 0
137500 -37500 0
143750 -37500 0
137500 -31250 0
143750 -31250 0
143750 -37500 0
150000 -37500 0
143750 -31250 0
150000 -31250 0
143750 -31250 0
150000 -31250 0
143750 -25000 0
150000 -25000 0
150000 -25000 0
156250 -25000 0
150000 -18750 0
156250 -18750 0
156250 -25000 0
162500 -25000 0
156250 -18750 0
162500 -18750 0
150000 -18750 0
156250 -18750 0
150000 -12500 0
156250 -12500 0
156250 -18750 0
162500 -18750 0
156250 -12500 0
162500 -12500 0
162500 -100000 0
168750 -100000 0
162500 -93750 0
168750 -93750 0
168750 -100000 0
175000 -100000 0
168750 -93750 0
175000 -93750 0
162500 -93750 0
168750 -93750 0
162500 -87500 0
168750 -87500 0
168750 -93750 0
175000 -93750 0
168750 -87500 0
175000 -87500 0
150000 -12500 0
156250 -12500 0
150000 -6250 0
156250 -6250 0
156250 -12500 0
162500 -12500 0
156250 -6250 0
162500 -6250 0
150000 -6250 0
156250 -6250 0
150000 0 0
156250 0 0
156250 -6250 0
162500 -6250 0
156250 0 0
162500 0 0
162500 -87500 0
168750 -87500 0
162500 -81250 0
168750 -81250 0
168750 -87500 0
175000 -87500 0
168750 -81250 0
175000 -81250 0
162500 -81250 0
168750 -81250 0
162500 -75000 0
168750 -75000 0
168750 -81250 0
175000 -81250 0
168750 -75000 0
175000 -75000 0
112500 -50000 0
118750 -50000 0
112500 -43750 0
118750 -43750 0
118750 -50000 0
125000 -50000 0
118750 -43750 0
125000 -43750 0
112500 -43750 0
118750 -43750 0
112500 -37500 0
118750 -37500 0
118750 -43750 0
125000 -43750 0
118750 -37500 0
125000 -37500 0
125000 -25000 0
131250 -25000 0
125000 -18750 0
131250 -18750 0
131250 -25000 0
137500 -25000 0
131250 -18750 0
137500 -18750 0
125000 -18750 0
131250 -18750 0
125000 -12500 0
131250 -12500 0
131250 -18750 0
137500 -18750 0
131250 -12500 0
137500 -12500 0
125000 -50000 0
131250 -50000 0
125000 -43750 0
131250 -43750 0
131250 -50000 0
137500 -50000 0
131250 -43750 0
137500 -43750 0
125000 -43750 0
131250 -43750 0
125000 -37500 0
131250 -37500 0
131250 -43750 0
137500 -43750 0
131250 -37500 0
137500 -37500 0
137500 -50000 0
143750 -50000 0
137500 -43750 0
143750 -43750 0
143750 -50000 0
150000 -50000 0
143750 -43750 0
150000 -43750 0
137500 -43750 0
143750 -43750 0
137500 -37500 0
143750 -37500 0
143750 -43750 0
150000 -43750 0
143750 -37500 0
150000 -37500 0
162500 -12500 0
168750 -12500 0
162500 -6250 0
168750 -6250 0
168750 -12500 0
175000 -12500 0
168750 -6250 0
175000 -6250 0
162500 -6250 0
168750 -6250 0
162500 0 0
168750 0 0
168750 -6250 0
175000 -6250 0
168750 0 0
175000 0 0
125000 -75000 0
131250 -75000 0
125000 -68750 0
131250 -68750 0
131250 -75000 0
137500 -75000 0
131250 -68750 0
137500 -68750 0
125000 -68750 0
131250 -68750 0
125000 -62500 0
131250 -62500 0
131250 -68750 0
137500 -68750 0
131250 -62500 0
137500 -62500 0
137500 -75000 0
143750 -75000 0
137500 -68750 0
143750 -68750 0
143750 -75000 0
150000 -75000 0
143750 -68750 0
150000 -68750 0
137500 -68750 0
143750 -68750 0
137500 -62500 0
143750 -62500 0
143750 -68750 0
150000 -68750 0
143750 -62500 0
150000 -62500 0
125000 -62500 0
131250 -62500 0
125000 -56250 0
131250 -56250 0
131250 -62500 0
137500 -62500 0
131250 -56250 0
137500 -56250 0
125000 -56250 0
131250 -56250 0
125000 -50000 0
131250 -50000 0
131250 -56250 0
137500 -56250 0
131250 -50000 0
137500 -50000 0
137500 -62500 0
143750 -62500 0
137500 -56250 0
143750 -56250 0
143750 -62500 0
150000 -62500 0
143750 -56250 0
150000 -56250 0
137500 -56250 0
143750 -56250 0
137500 -50000 0
143750 -50000 0
143750 -56250 0
150000 -56250 0
143750 -50000 0
150000 -50000 0
175000 -100000 0
181250 -100000 0
175000 -93750 0
181250 -93750 0
181250 -100000 0
187500 -100000 0
181250 -93750 0
187500 -93750 0
175000 -93750 0
181250 -93750 0
175000 -87500 0
181250 -87500 0
181250 -93750 0
187500 -93750 0
181250 -87500 0
187500 -87500 0
187500 -100000 0
193750 -100000 0
187500 -93750 0
193750 -93750 0
193750 -100000 0
200000 -100000 0
193750 -93750 0
200000 -93750 0
187500 -93750 0
193750 -93750 0
187500 -87500 0
193750 -87500 0
193750 -93750 0
200000 -93750 0
193750 -87500 0
200000 -87500 0
175000 -87500 0
181250 -87500 0
175000 -81250 0
181250 -81250 0
181250 -87500 0
187500 -87500 0
181250 -81250 0
187500 -81250 0
175000 -81250 0
181250 -81250 0
175000 -75000 0
181250 -75000 0
181250 -81250 0
187500 -81250 0
181250 -75000 0
187500 -75000 0
187500 -87500 0
193750 -87500 0
187500 -81250 0
193750 -81250 0
193750 -87500 0
200000 -87500 0
193750 -81250 0
200000 -81250 0
187500 -81250 0
193750 -81250 0
187500 -75000 0
193750 -75000 0
193750 -81250 0
200000 -81250 0
193750 -75000 0
200000 -75000 0
150000 -75000 0
156250 -75000 0
150000 -68750 0
156250 -68750 0
156250 -75000 0
162500 -75000 0
156250 -68750 0
162500 -68750 0
150000 -68750 0
156250 -68750 0
150000 -62500 0
156250 -62500 0
156250 -68750 0
162500 -68750 0
156250 -62500 0
162500 -62500 0
162500 -75000 0
168750 -75000 0
162500 -68750 0
168750 -68750 0
168750 -75000 0
175000 -75000 0
168750 -68750 0
175000 -68750 0
162500 -68750 0
168750 -68750 0
162500 -62500 0
168750 -62500 0
168750 -68750 0
175000 -68750 0
168750 -62500 0
175000 -62500 0
175000 -75000 0
181250 -75000 0
175000 -68750 0
181250 -68750 0
181250 -75000 0
187500 -75000 0
181250 -68750 0
187500 -68750 0
175000 -68750 0
181250 -68750 0
175000 -62500 0
181250 -62500 0
181250 -68750 0
187500 -68750 0
181250 -62500 0
187500 -62500 0
150000 -37500 0
156250 -37500 0
150000 -31250 0
156250 -31250 0
156250 -37500 0
162500 -37500 0
156250 -31250 0
162500 -31250 0
150000 -31250 0
156250 -31250 0
150000 -25000 0
156250 -25000 0
156250 -31250 0
162500 -31250 0
156250 -25000 0
162500 -25000 0
162500 -37500 0
168750 -37500 0
162500 -31250 0
168750 -31250 0
168750 -37500 0
175000 -37500 0
168750 -31250 0
175000 -31250 0
162500 -31250 0
168750 -31250 0
162500 -25000 0
168750 -25000 0
168750 -31250 0
175000 -31250 0
168750 -25000 0
175000 -25000 0
175000 -37500 0
181250 -37500 0
175000 -31250 0
181250 -31250 0
181250 -37500 0
187500 -37500 0
181250 -31250 0
187500 -31250 0
175000 -31250 0
181250 -31250 0
175000 -25000 0
181250 -25000 0
181250 -31250 0
187500 -31250 0
181250 -25000 0
187500 -25000 0
175000 -25000 0
181250 -25000 0
175000 -18750 0
181250 -18750 0
181250 -25000 0
187500 -25000 0
181250 -18750 0
187500 -18750 0
175000 -18750 0
181250 -18750 0
175000 -12500 0
181250 -12500 0
181250 -18750 0
187500 -18750 0
181250 -12500 0
187500 -12500 0
187500 -25000 0
193750 -25000 0
187500 -18750 0
193750 -18750 0
193750 -25000 0
200000 -25000 0
193750 -18750 0
200000 -18750 0
187500 -18750 0
193750 -18750 0
187500 -12500 0
193750 -12500 0
193750 -18750 0
200000 -18750 0
193750 -12500 0
200000 -12500 0
175000 -12500 0
181250 -12500 0
175000 -6250 0
181250 -6250 0
181250 -12500 0
187500 -12500 0
181250 -6250 0
187500 -6250 0
175000 -6250 0
181250 -6250 0
175000 0 0
181250 0 0
181250 -6250 0
187500 -6250 0
181250 0 0
187500 0 0
187500 -12500 0
193750 -12500 0
187500 -6250 0
193750 -6250 0
193750 -12500 0
200000 -12500 0
193750 -6250 0
200000 -6250 0
187500 -6250 0
193750 -6250 0
187500 0 0
193750 0 0
193750 -6250 0
200000 -6250 0
[...]
POINT_DATA 26120
SCALARS velocity double 1
LOOKUP_TABLE default
-2.02778 -2.02953 -2.05277 -2.03767 -1.98224 -1.98846 -1.99526 -1.99788 -1.98846 -1.985 -1.99788 -2.00026 -1.96955 -1.96552 -1.98231 -1.97851 -1.985 -1.98231 -2.00026 -1.99798 -1.98231 -1.97851 -1.99798 -1.99581 -1.99526 -1.99788 -2.00189 -2.01032 -1.99788 -2.00026 -2.01032 -2.01353 -2.00026 -1.99798 -2.01353 -2.01312 -1.99798 -1.99581 -2.01312 -2.01403 -2.01312 -2.01403 -2.02887 -2.03061 -1.95427 -1.94969 -1.9416 -1.94398 -1.82814 -1.88788 -1.80034 -1.8472 -1.88788 -1.92135 -1.8472 -1.86389 -1.92135 -1.94697 -1.86389 -1.89326 -1.86389 -1.89326 -1.84436 -1.88791 -1.77819 -1.83725 -1.8137 -1.85051 -1.8137 -1.85051 -1.87407 -1.87793 -1.85051 -1.83869 -1.87793 -1.86456 -1.87407 -1.87793 -1.90354 -1.90759 -1.90354 -1.90759 -1.91813 -1.91437 -1.90759 -1.88798 -1.91437 -1.92075 -1.91667 -1.91181 -1.94057 -1.92635 -1.91181 -1.91813 -1.92635 -1.93196 -2.0729 -2.08448 -2.15277 -2.08071 -1.98212 -1.99694 -2.0151 -1.99392 -1.99392 -2.02541 -2.05249 -2.0729 -1.94697 -1.9416 -1.89326 -1.91926 -1.9416 -1.94398 -1.91926 -1.94657 -1.94969 -1.95304 -1.94398 -1.95129 -1.95304 -1.96046 -1.95129 -1.96086 -1.96046 -1.96786 -1.96086 -1.96757 -1.96786 -1.97112 -1.96757 -1.97485 -1.92964 -1.93507 -1.93811 -1.93389 -1.93507 -1.93538 -1.93389 -1.93691 -1.93811 -1.93389 -1.94782 -1.96324 -1.93389 -1.93691 -1.96324 -1.96353 -1.94782 -1.96324 -1.96347 -1.97023 -1.96324 -1.96353 -1.97023 -1.97098 -1.96347 -1.97023 -1.97176 -1.97823 -1.97023 -1.97098 -1.97823 -1.98043 -1.94398 -1.95129 -1.94657 -1.95952 -1.95129 -1.96086 -1.95952 -1.97156 -2.01833 -2.02481 -2.05796 -2.05234 -2.0039 -1.99227 -2.0497 -2.02345 -1.99227 -1.99312 -2.02345 -2.00931 -1.99312 -2.00189 -2.00931 -2.01343 -2.00931 -2.01343 -2.01833 -2.02481 -2.02481 -2.02436 -2.05234 -2.05418 -2.02436 -2.02778 -2.05418 -2.04028 -2.05234 -2.05418 -2.08711 -2.06424 -2.05418 -2.04028 -2.06424 -2.05277 -1.93538 -1.94189 -1.93691 -1.95269 -1.94189 -1.94908 -1.95269 -1.9561 -1.93691 -1.95269 -1.96353 -1.95911 -1.95269 -1.9561 -1.95911 -1.96334 -2.08711 -2.06424 -2.10039 -2.077 -2.06424 -2.05277 -2.077 -2.05875 -2.10039 -2.077 -2.11143 -2.08457 -2.077 -2.05875 -2.08457 -2.06308 -1.96353 -1.95911 -1.97098 -1.96626 -1.95911 -1.96334 -1.96626 -1.96701 -1.97098 -1.96626 -1.98043 -1.97778 -1.96626 -1.96701 -1.97778 -1.97408 -1.96086 -1.96757 -1.97156 -1.98393 -1.96757 -1.97485 -1.98393 -1.98718 -1.97156 -1.98393 -2.00154 -1.99818 -1.98393 -1.98718 -1.99818 -2.00972 -2.1037 -2.07537 -2.11352 -2.08207 -2.07537 -2.03995 -2.08207 -2.07568 -2.11352 -2.08207 -2.05616 -2.08363 -2.08207 -2.07568 -2.08363 -2.08985 -1.97485 -1.98421 -1.98718 -1.99422 -1.98421 -1.9889 -1.99422 -1.99458 -1.98718 -1.99422 -2.00972 -2.0039 -1.99422 -1.99458 -2.0039 -1.99227 -1.9889 -1.99236 -1.99458 -1.99518 -1.99236 -1.99526 -1.99518 -1.99857 -1.99458 -1.99518 -1.99227 -1.99312 -1.99518 -1.99857 -1.99312 -2.00189 -2.05277 -2.04522 -2.05875 -2.04838 -2.04522 -2.03767 -2.04838 -2.0395 -2.05875 -2.04838 -2.06308 -2.05103 -2.04838 -2.0395 -2.05103 -2.04044 -1.92075 -1.93186 -1.94591 -1.94966 -1.93186 -1.94393 -1.94966 -1.95524 -1.94591 -1.94966 -1.96696 -1.96228 -1.94966 -1.95524 -1.96228 -1.96591 -1.94393 -1.95833 -1.95524 -1.96445 -1.95833 -1.97176 -1.96445 -1.9724 -1.95524 -1.96445 -1.96591 -1.97275 -1.96445 -1.9724 -1.97275 -1.98224 -1.96696 -1.96228 -1.97112 -1.97311 -1.96228 -1.96591 -1.97311 -1.97836 -1.97112 -1.97311 -1.97485 -1.98421 -1.97311 -1.97836 -1.98421 -1.9889 -1.96591 -1.97275 -1.97836 -1.98431 -1.97275 -1.98224 -1.98431 -1.98875 -1.97836 -1.98431 -1.9889 -1.99236 -1.98431 -1.98875 -1.99236 -1.99526 -1.94908 -1.95112 -1.9561 -1.95635 -1.95112 -1.95334 -1.95635 -1.95743 -1.9561 -1.95635 -1.96334 -1.96247 -1.95635 -1.95743 -1.96247 -1.95963 -1.95334 -1.94672 -1.95743 -1.95183 -1.94672 -1.94047 -1.95183 -1.94527 -1.95743 -1.95183 -1.95963 -1.95758 -1.95183 -1.94527 -1.95758 -1.95422 -1.96334 -1.96247 -1.96701 -1.96629 -1.96247 -1.95963 -1.96629 -1.96266 -1.96701 -1.96629 -1.97408 -1.97156 -1.96629 -1.96266 -1.97156 -1.96955 -1.95963 -1.95758 -1.96266 -1.96234 -1.95758 -1.95422 -1.96234 -1.96203 -1.96266 -1.96234 -1.96955 -1.96754 -1.96234 -1.96203 -1.96754 -1.96552 -1.97176 -1.97823 -1.9724 -1.9775 -1.97823 -1.98043 -1.9775 -1.98359 -1.9724 -1.9775 -1.98224 -1.98535 -1.9775 -1.98359 -1.98535 -1.98846 -1.98043 -1.97778 -1.98359 -1.98456 -1.97778 -1.97408 -1.98456 -1.98166 -1.98359 -1.98456 -1.98846 -1.98673 -1.98456 -1.98166 -1.98673 -1.985 -1.97408 -1.97156 -1.98166 -1.97796 -1.97156 -1.96955 -1.97796 -1.97593 -1.98166 -1.97796 -1.985 -1.98365 -1.97796 -1.97593 -1.98365 -1.98231 -2.00189 -2.0061 -2.01343 -2.01529 -2.0061 -2.01032 -2.01529 -2.01702 -2.01343 -2.01529 -2.02481 -2.02436 -2.01529 -2.01702 -2.02436 -2.02778 -2.01032 -2.01193 -2.01702 -2.01851 -2.01193 -2.01353 -2.01851 -2.02023 -2.01702 -2.01851 -2.02778 -2.02866 -2.01851 -2.02023 -2.02866 -2.02953 -2.01353 -2.01333 -2.02023 -2.02121 -2.01333 -2.01312 -2.02121 -2.02099 -2.02023 -2.02121 -2.02953 -2.02773 -2.02121 -2.02099 -2.02773 -2.02887 -2.02953 -2.02773 -2.0336 -2.03301 -2.02773 -2.02887 -2.03301 -2.03528 -2.0336 -2.03301 -2.03767 -2.03175 -2.03301 -2.03528 -2.03175 -2.03753 -2.02887 -2.02974 -2.03528 -2.03928 -2.02974 -2.03061 -2.03928 -2.04049 -2.03528 -2.03928 -2.03753 -2.05246 -2.03928 -2.04049 -2.05246 -2.05969 -2.03767 -2.03175 -2.0395 -2.0262 -2.03175 -2.03753 -2.0262 -2.01159 -2.0395 -2.0262 -2.04044 -2.02301 -2.0262 -2.01159 -2.02301 -1.98802 -2.03753 -2.05246 -2.01159 -2.06787 -2.05246 -2.05969 -2.06787 -2.12776 -2.01159 -2.06787 -1.98802 -2.07921 -2.06787 -2.12776 -2.07921 -2.18666 -1.59866 -1.65714 -1.60839 -1.65181 -1.59155 -1.60839 -1.5967 -1.64196 -1.29034 -1.32109 -1.3019 -1.34522 -1.32109 -1.30251 -1.34522 -1.36661 -1.3019 -1.34522 -1.36652 -1.39242 -1.34522 -1.36661 -1.39242 -1.42049 -1.36652 -1.39242 -1.42103 -1.44106 -1.39242 -1.42049 -1.44106 -1.47742 -1.39671 -1.42103 -1.40891 -1.44926 -1.40891 -1.44926 -1.46063 -1.48958 -1.42103 -1.44106 -1.44926 -1.47662 -1.44106 -1.47742 -1.47662 -1.5128 -1.44926 -1.47662 -1.48958 -1.48762 -1.47662 -1.5128 -1.48762 -1.53425 -1.47477 -1.46063 -1.48369 -1.48804 -1.46063 -1.48958 -1.48804 -1.51252 -1.48369 -1.48804 -1.50401 -1.49034 -1.48804 -1.51252 -1.49034 -1.48889 -1.48762 -1.53425 -1.50441 -1.54477 -1.51252 -1.50441 -1.48889 -1.5154 -1.50441 -1.54477 -1.5154 -1.55677 -1.53292 -1.53463 -1.56233 -1.56743 -1.57443 -1.56233 -1.59461 -1.62403 -1.56233 -1.56743 -1.62403 -1.5799 -1.59461 -1.62403 -1.65038 -1.64811 -1.62542 -1.65038 -1.64783 -1.6641 -1.63249 -1.64783 -1.65714 -1.67289 -1.567 -1.5967 -1.58274 -1.64175 -1.6877 -1.72257 -1.68302 -1.71072 -1.72257 -1.74702 -1.71072 -1.74295 -1.74702 -1.78701 -1.74295 -1.78565 -1.78701 -1.82354 -1.78565 -1.85631 -1.85631 -1.91981 -1.94748 -1.98726 -2.21867 -2.27511 -2.20826 -2.26337 -2.27511 -2.28957 -2.26337 -2.30381 -2.28957 -2.25604 -2.30381 -2.31422 -2.26337 -2.30381 -2.28181 -2.34851 -2.30381 -2.31422 -2.34851 -2.4 -2.34851 -2.4 -2.41249 -2.51193 -2.41249 -2.51193 -2.46692 -2.6133 -2.62026 -2.66018 -2.63431 -2.68463 -2.6133 -2.77584 -2.61786 -2.70723 -2.77584 -2.81781 -2.70723 -2.76169 -2.61786 -2.70723 -2.64387 -2.70355 -2.81781 -2.78746 -2.76169 -2.77583 -2.64387 -2.70355 -2.66018 -2.72038 -2.70355 -2.75504 -2.72038 -2.77125 -1.88639 -1.91667 -1.90204 -1.92862 -1.90204 -1.92862 -1.92852 -1.94057 -1.88382 -1.9129 -1.94005 -1.91488 -1.9129 -1.92125 -1.91488 -1.91804 -1.89375 -1.92852 -1.92125 -1.9213 -1.92852 -1.94057 -1.9213 -1.93317 -1.92125 -1.9213 -1.91804 -1.91869 -1.9213 -1.93317 -1.91869 -1.92464 -1.75284 -1.81162 -1.76829 -1.78854 -1.81162 -1.84431 -1.78854 -1.82814 -1.83217 -1.88808 -1.84431 -1.87033 -1.88808 -1.91085 -1.87033 -1.89379 -1.84431 -1.87033 -1.82814 -1.85801 -1.87033 -1.89379 -1.85801 -1.88788 -1.54361 -1.59479 -1.5153 -1.5257 -1.59479 -1.60784 -1.5257 -1.58401 -1.6901 -1.72009 -1.70226 -1.70474 -1.59028 -1.62815 -1.60784 -1.63945 -1.62815 -1.68065 -1.63945 -1.68428 -1.60784 -1.63945 -1.58401 -1.64809 -1.63945 -1.68428 -1.64809 -1.69228 -1.88465 -1.92982 -1.91623 -1.92324 -1.899 -1.91623 -1.91085 -1.91191 -1.91623 -1.92324 -1.91191 -1.92533 -1.92982 -1.95105 -1.92324 -1.94092 -1.95105 -1.94005 -1.94092 -1.96183 -1.92324 -1.94092 -1.92533 -1.93732 -1.94092 -1.96183 -1.93732 -1.9553 -1.65682 -1.71999 -1.70593 -1.73944 -1.72009 -1.70593 -1.70474 -1.71516 -1.70593 -1.73944 -1.71516 -1.73097 -1.73097 -1.75328 -1.75243 -1.76143 -1.75328 -1.78597 -1.76143 -1.78886 -1.76143 -1.78886 -1.80998 -1.80999 -1.78597 -1.78882 -1.78886 -1.79453 -1.78882 -1.80034 -1.79453 -1.80227 -1.78886 -1.79453 -1.80999 -1.77949 -1.79453 -1.80227 -1.77949 -1.7907 -1.80034 -1.82377 -1.80227 -1.81783 -1.82377 -1.8472 -1.81783 -1.85572 -1.80227 -1.81783 -1.7907 -1.80832 -1.81783 -1.85572 -1.80832 -1.83094 -1.76022 -1.81542 -1.79588 -1.8338 -1.81542 -1.8465 -1.8338 -1.86317 -1.79588 -1.8338 -1.83191 -1.85676 -1.8338 -1.86317 -1.85676 -1.89375 -1.8282 -1.84436 -1.88827 -1.84928 -1.84436 -1.86613 -1.84928 -1.84661 -1.86613 -1.88791 -1.84661 -1.89042 -1.62507 -1.69316 -1.66747 -1.68768 -1.69316 -1.74037 -1.68768 -1.74198 -1.74037 -1.77819 -1.74198 -1.79595 -1.68768 -1.74198 -1.72413 -1.76641 -1.74198 -1.79595 -1.76641 -1.8137 -1.72413 -1.76641 -1.78376 -1.80117 -1.76641 -1.8137 -1.80117 -1.84388 -1.80117 -1.84388 -1.85401 -1.87407 -1.68065 -1.70226 -1.68428 -1.7164 -1.70226 -1.70474 -1.7164 -1.75024 -1.68428 -1.7164 -1.69228 -1.72209 -1.7164 -1.75024 -1.72209 -1.74238 -1.91085 -1.91191 -1.89379 -1.90866 -1.91191 -1.92533 -1.90866 -1.92134 -1.89379 -1.90866 -1.88788 -1.90461 -1.90866 -1.92134 -1.90461 -1.92135 -1.92533 -1.93732 -1.92134 -1.9304 -1.93732 -1.9553 -1.9304 -1.94112 -1.92134 -1.9304 -1.92135 -1.93416 -1.9304 -1.94112 -1.93416 -1.94697 -1.94005 -1.91488 -1.96183 -1.94687 -1.91488 -1.91804 -1.94687 -1.94051 -1.96183 -1.94687 -1.9553 -1.9575 -1.94687 -1.94051 -1.9575 -1.95427 -1.91804 -1.91869 -1.94051 -1.93879 -1.91869 -1.92464 -1.93879 -1.93684 -1.94051 -1.93879 -1.95427 -1.95198 -1.93879 -1.93684 -1.95198 -1.94969 -1.9553 -1.9575 -1.94112 -1.94988 -1.9575 -1.95427 -1.94988 -1.94793 -1.94112 -1.94988 -1.94697 -1.94428 -1.94988 -1.94793 -1.94428 -1.9416 -1.71999 -1.74707 -1.73944 -1.74048 -1.74707 -1.76829 -1.74048 -1.75808 -1.73944 -1.74048 -1.73097 -1.75328 -1.74048 -1.75808 -1.75328 -1.78597 -1.70474 -1.71516 -1.75024 -1.77137 -1.71516 -1.73097 -1.77137 -1.75243 -1.75024 -1.77137 -1.74238 -1.76044 -1.77137 -1.75243 -1.76044 -1.79238 -1.76829 -1.78854 -1.75808 -1.79464 -1.78854 -1.82814 -1.79464 -1.81424 -1.75808 -1.79464 -1.78597 -1.78882 -1.79464 -1.81424 -1.78882 -1.80034 -2.15277 -2.11674 -2.19441 -2.15194 -2.11674 -2.08071 -2.15194 -2.10932 -2.19441 -2.15194 -2.26748 -2.14983 -2.15194 -2.10932 -2.14983 -2.14841 -2.14983 -2.14841 -2.10909 -2.17377 -2.10909 -2.17377 -2.19476 -2.18884 -2.14841 -2.16373 -2.17377 -2.23264 -2.17377 -2.23264 -2.18884 -2.2023 -2.23264 -2.10396 -2.2023 -2.19476 -2.19476 -2.18884 -2.28859 -2.22216 -2.45473 -2.28859 -2.42966 -2.344 -2.28859 -2.22216 -2.344 -2.24916 -1.8472 -1.85555 -1.85572 -1.84735 -1.85555 -1.86389 -1.84735 -1.85412 -1.85572 -1.84735 -1.83094 -1.8282 -1.84735 -1.85412 -1.8282 -1.84436 -2.0151 -2.00451 -2.05438 -1.97413 -2.00451 -1.99392 -1.97413 -2.02321 -1.97413 -2.02321 -2.0639 -2.05249 -1.83725 -1.81904 -1.84388 -1.83208 -1.81904 -1.80488 -1.83208 -1.8178 -1.84388 -1.83208 -1.85051 -1.8446 -1.83208 -1.8178 -1.8446 -1.83869 -1.87793 -1.87125 -1.89276 -1.88386 -1.87125 -1.86456 -1.88386 -1.87102 -1.89276 -1.88386 -1.90759 -1.89779 -1.88386 -1.87102 -1.89779 -1.88798 -1.94057 -1.93346 -1.93317 -1.93297 -1.93346 -1.92635 -1.93297 -1.93227 -1.93317 -1.93297 -1.92464 -1.93261 -1.93297 -1.93227 -1.93261 -1.94072 -1.92635 -1.92916 -1.93227 -1.93919 -1.92916 -1.93196 -1.93919 -1.94647 -1.93227 -1.93919 -1.94072 -1.94992 -1.93919 -1.94647 -1.94992 -1.95668 -2.08448 -2.09362 -2.0826 -2.09555 -2.09362 -2.1037 -2.09555 -2.10861 -2.0826 -2.09555 -2.08071 -2.09718 -2.09555 -2.10861 -2.09718 -2.11352 -2.08071 -2.09718 -2.10932 -2.10673 -2.09718 -2.11352 -2.10673 -2.08484 -2.10932 -2.10673 -2.14841 -2.16373 -2.10673 -2.08484 -2.16373 -2.05616 -2.18884 -2.2023 -2.22216 -2.21966 -2.2023 -2.19476 -2.21966 -2.22297 -2.22216 -2.21966 -2.24916 -2.23648 -2.21966 -2.22297 -2.23648 -2.2406 -1.99694 -1.99175 -1.99543 -1.99124 -1.99175 -2.00154 -1.99124 -2.01092 -1.99543 -1.99124 -1.99392 -2.00967 -1.99124 -2.01092 -2.00967 -2.02541 -2.00154 -1.99986 -2.01092 -2.02314 -1.99986 -1.99818 -2.02314 -2.00892 -2.01092 -2.02314 -2.02541 -2.03203 -2.02314 -2.00892 -2.03203 -2.03911 -1.99818 -2.00395 -2.00892 -2.02397 -2.00395 -2.00972 -2.02397 -2.03506 -2.00892 -2.02397 -2.03911 -2.04794 -2.02397 -2.03506 -2.04794 -2.05678 -2.02541 -2.03203 -2.04916 -2.05823 -2.03203 -2.03911 -2.05823 -2.06281 -2.04916 -2.05823 -2.0729 -2.07869 -2.05823 -2.06281 -2.07869 -2.08448 -2.03911 -2.04794 -2.06281 -2.06966 -2.04794 -2.05678 -2.06966 -2.0791 -2.06281 -2.06966 -2.08448 -2.09362 -2.06966 -2.0791 -2.09362 -2.1037 -1.89326 -1.90626 -1.89058 -1.91381 -1.90626 -1.91926 -1.91381 -1.93054 -1.89058 -1.91381 -1.88791 -1.91667 -1.91381 -1.93054 -1.91667 -1.94344 -1.91926 -1.93291 -1.93054 -1.94656 -1.93291 -1.94657 -1.94656 -1.96494 -1.93054 -1.94656 -1.94344 -1.96544 -1.94656 -1.96494 -1.96544 -1.98212 -1.88791 -1.91667 -1.89042 -1.93817 -1.91667 -1.94344 -1.93817 -1.96306 -1.89042 -1.93817 -1.93646 -1.95889 -1.93817 -1.96306 -1.95889 -1.98492 -1.94344 -1.96544 -1.96306 -1.9813 -1.96544 -1.98212 -1.9813 -1.99861 -1.96306 -1.9813 -1.98492 -2.0129 -1.9813 -1.99861 -2.0129 -2.0151 -1.93646 -1.95889 -1.98963 -1.99709 -1.95889 -1.98492 -1.99709 -1.99753 -1.98963 -1.99709 -2.03514 -1.99744 -1.99709 -1.99753 -1.99744 -1.97494 -1.98492 -2.0129 -1.99753 -2.01781 -2.0129 -2.0151 -2.01781 -2.05438 -1.99753 -2.01781 -1.97494 -2.0057 -2.01781 -2.05438 -2.0057 -2.0862 -1.84113 -1.85285 -1.83908 -1.85815 -1.85285 -1.8535 -1.85815 -1.86741 -1.83908 -1.85815 -1.85715 -1.87267 -1.85815 -1.86741 -1.87267 -1.88297 -1.8535 -1.85401 -1.86741 -1.87856 -1.85401 -1.87407 -1.87856 -1.8888 -1.86741 -1.87856 -1.88297 -1.89197 -1.87856 -1.8888 -1.89197 -1.90354 -1.85715 -1.87267 -1.88224 -1.89311 -1.87267 -1.88297 -1.89311 -1.89653 -1.88224 -1.89311 -1.91667 -1.91424 -1.89311 -1.89653 -1.91424 -1.91181 -1.88297 -1.89197 -1.89653 -1.90312 -1.89197 -1.90354 -1.90312 -1.91083 -1.89653 -1.90312 -1.91181 -1.91497 -1.90312 -1.91083 -1.91497 -1.91813 -1.80488 -1.83319 -1.8178 -1.84517 -1.83319 -1.8566 -1.84517 -1.86512 -1.8178 -1.84517 -1.83869 -1.85571 -1.84517 -1.86512 -1.85571 -1.87586 -1.8566 -1.87766 -1.86512 -1.88535 -1.87766 -1.89839 -1.88535 -1.90486 -1.86512 -1.88535 -1.87586 -1.8959 -1.88535 -1.90486 -1.8959 -1.91316 -1.83869 -1.85571 -1.85163 -1.87232 -1.85571 -1.87586 -1.87232 -1.89189 -1.85163 -1.87232 -1.86456 -1.88489 -1.87232 -1.89189 -1.88489 -1.90088 -1.87586 -1.8959 -1.89189 -1.90643 -1.8959 -1.91316 -1.90643 -1.91801 -1.89189 -1.90643 -1.90088 -1.91164 -1.90643 -1.91801 -1.91164 -1.92049 -1.89839 -1.908 -1.90486 -1.91262 -1.908 -1.91485 -1.91262 -1.92049 -1.90486 -1.91262 -1.91316 -1.91941 -1.91262 -1.92049 -1.91941 -1.92551 -1.91485 -1.92165 -1.92049 -1.92783 -1.92165 -1.92964 -1.92783 -1.93388 -1.92049 -1.92783 -1.92551 -1.93377 -1.92783 -1.93388 -1.93377 -1.93811 -1.91316 -1.91941 -1.91801 -1.92588 -1.91941 -1.92551 -1.92588 -1.93068 -1.91801 -1.92588 -1.92049 -1.92908 -1.92588 -1.93068 -1.92908 -1.93538 -1.92551 -1.93377 -1.93068 -1.93772 -1.93377 -1.93811 -1.93772 -1.94297 -1.93068 -1.93772 -1.93538 -1.94202 -1.93772 -1.94297 -1.94202 -1.94782 -1.86456 -1.88489 -1.87102 -1.89123 -1.88489 -1.90088 -1.89123 -1.90548 -1.87102 -1.89123 -1.88798 -1.90186 -1.89123 -1.90548 -1.90186 -1.91405 -1.90088 -1.91164 -1.90548 -1.91769 -1.91164 -1.92049 -1.91769 -1.92658 -1.90548 -1.91769 -1.91405 -1.9241 -1.91769 -1.92658 -1.9241 -1.93196 -1.88798 -1.90186 -1.90437 -1.91497 -1.90186 -1.91405 -1.91497 -1.92343 -1.90437 -1.91497 -1.92075 -1.92631 -1.91497 -1.92343 -1.92631 -1.93186 -1.91405 -1.9241 -1.92343 -1.93099 -1.9241 -1.93196 -1.93099 -1.93677 -1.92343 -1.93099 -1.93186 -1.9379 -1.93099 -1.93677 -1.9379 -1.94393 -1.92049 -1.92908 -1.92658 -1.93334 -1.92908 -1.93538 -1.93334 -1.94036 -1.92658 -1.93334 -1.93196 -1.93883 -1.93334 -1.94036 -1.93883 -1.9447 -1.93538 -1.94202 -1.94036 -1.94834 -1.94202 -1.94782 -1.94834 -1.95565 -1.94036 -1.94834 -1.9447 -1.95293 -1.94834 -1.95565 -1.95293 -1.96347 -1.93196 -1.93883 -1.93677 -1.94404 -1.93883 -1.9447 -1.94404 -1.95116 -1.93677 -1.94404 -1.94393 -1.95113 -1.94404 -1.95116 -1.95113 -1.95833 -1.9447 -1.95293 -1.95116 -1.96024 -1.95293 -1.96347 -1.96024 -1.96762 -1.95116 -1.96024 -1.95833 -1.96505 -1.96024 -1.96762 -1.96505 -1.97176 -1.91813 -1.91625 -1.92505 -1.92444 -1.91625 -1.91437 -1.92444 -1.92543 -1.92505 -1.92444 -1.93196 -1.93468 -1.92444 -1.92543 -1.93468 -1.93231 -1.91437 -1.91756 -1.92543 -1.92913 -1.91756 -1.92075 -1.92913 -1.93333 -1.92543 -1.92913 -1.93231 -1.93602 -1.92913 -1.93333 -1.93602 -1.94591 -1.93196 -1.93468 -1.94647 -1.943 -1.93468 -1.93231 -1.943 -1.94459 -1.94647 -1.943 -1.95668 -1.95942 -1.943 -1.94459 -1.95942 -1.962 -1.93231 -1.93602 -1.94459 -1.95124 -1.93602 -1.94591 -1.95124 -1.95644 -1.94459 -1.95124 -1.962 -1.96567 -1.95124 -1.95644 -1.96567 -1.96696 -1.92464 -1.93261 -1.93684 -1.94901 -1.93261 -1.94072 -1.94901 -1.95226 -1.93684 -1.94901 -1.94969 -1.95136 -1.94901 -1.95226 -1.95136 -1.95304 -1.94072 -1.94992 -1.95226 -1.95401 -1.94992 -1.95668 -1.95401 -1.95761 -1.95226 -1.95401 -1.95304 -1.95675 -1.95401 -1.95761 -1.95675 -1.96046 -1.95668 -1.95942 -1.95761 -1.96137 -1.95942 -1.962 -1.96137 -1.96461 -1.95761 -1.96137 -1.96046 -1.96416 -1.96137 -1.96461 -1.96416 -1.96786 -1.962 -1.96567 -1.96461 -1.96762 -1.96567 -1.96696 -1.96762 -1.96904 -1.96461 -1.96762 -1.96786 -1.96949 -1.96762 -1.96904 -1.96949 -1.97112 -2.0862 -2.0639 -2.10472 -2.11505 -2.0639 -2.05249 -2.11505 -2.11607 -2.10472 -2.11505 -2.17762 -2.18287 -2.11505 -2.11607 -2.18287 -2.17821 -2.05249 -2.06269 -2.11607 -2.11787 -2.06269 -2.0729 -2.11787 -2.11284 -2.11607 -2.11787 -2.17821 -2.16832 -2.11787 -2.11284 -2.16832 -2.15277 -2.17762 -2.18287 -2.2542 -2.25299 -2.18287 -2.17821 -2.25299 -2.24397 -2.2542 -2.25299 -2.34081 -2.32296 -2.25299 -2.24397 -2.32296 -2.31239 -2.17821 -2.16832 -2.24397 -2.22711 -2.16832 -2.15277 -2.22711 -2.19441 -2.24397 -2.22711 -2.31239 -2.30524 -2.22711 -2.19441 -2.30524 -2.26748 -2.34081 -2.32296 -2.42027 -2.39378 -2.32296 -2.31239 -2.39378 -2.37889 -2.42027 -2.39378 -2.48267 -2.4497 -2.39378 -2.37889 -2.4497 -2.43164 -2.31239 -2.30524 -2.37889 -2.37814 -2.30524 -2.26748 -2.37814 -2.43527 -2.37889 -2.37814 -2.43164 -2.43424 -2.37814 -2.43527 -2.43424 -2.46688 -2.48267 -2.4497 -2.53856 -2.49677 -2.4497 -2.43164 -2.49677 -2.46871 -2.53856 -2.49677 -2.58446 -2.51868 -2.49677 -2.46871 -2.51868 -2.48916 -2.43164 -2.43424 -2.46871 -2.45474 -2.43424 -2.46688 -2.45474 -2.45473 -2.46871 -2.45474 -2.48916 -2.47051 -2.45474 -2.45473 -2.47051 -2.42966 -1.94657 -1.95304 -1.96494 -1.97134 -1.95304 -1.95952 -1.97134 -1.96851 -1.96494 -1.97134 -1.98212 -1.98953 -1.97134 -1.96851 -1.98953 -1.99694 -1.95952 -1.96554 -1.96851 -1.96964 -1.96554 -1.97156 -1.96964 -1.98655 -1.96851 -1.96964 -1.99694 -1.99175 -1.96964 -1.98655 -1.99175 -2.00154 -2.03995 -2.02175 -2.05782 -2.04701 -2.02175 -2.01833 -2.04701 -2.03814 -2.05782 -2.04701 -2.07568 -2.06643 -2.04701 -2.03814 -2.06643 -2.05796 -2.07568 -2.06643 -2.08276 -2.08949 -2.06643 -2.05796 -2.08949 -2.08294 -2.08276 -2.08949 -2.08985 -2.10416 -2.08949 -2.08294 -2.10416 -2.10665 -2.05796 -2.05515 -2.08294 -2.07414 -2.05515 -2.05234 -2.07414 -2.06972 -2.08294 -2.07414 -2.10665 -2.10129 -2.07414 -2.06972 -2.10129 -2.08711 -2.05616 -2.06989 -2.10396 -2.11486 -2.06989 -2.08363 -2.11486 -2.12067 -2.10396 -2.11486 -2.19476 -2.16543 -2.11486 -2.12067 -2.16543 -2.15121 -2.08363 -2.08674 -2.12067 -2.1171 -2.08674 -2.08985 -2.1171 -2.10444 -2.12067 -2.1171 -2.15121 -2.13543 -2.1171 -2.10444 -2.13543 -2.11776 -2.19476 -2.16543 -2.22297 -