# vtk DataFile Version 3.0
#This file was generated by the deal.II library on 2016/5/13 at 16:44:18
ASCII
DATASET UNSTRUCTURED_GRID

POINTS 26120 double
162500 -25000 0
175000 -25000 0
162500 -12500 0
175000 -12500 0
150000 -62500 0
162500 -62500 0
150000 -50000 0
162500 -50000 0
162500 -62500 0
175000 -62500 0
162500 -50000 0
175000 -50000 0
187500 -75000 0
200000 -75000 0
187500 -62500 0
200000 -62500 0
175000 -62500 0
187500 -62500 0
175000 -50000 0
187500 -50000 0
187500 -62500 0
200000 -62500 0
187500 -50000 0
200000 -50000 0
150000 -50000 0
162500 -50000 0
150000 -37500 0
162500 -37500 0
162500 -50000 0
175000 -50000 0
162500 -37500 0
175000 -37500 0
175000 -50000 0
187500 -50000 0
175000 -37500 0
187500 -37500 0
187500 -50000 0
200000 -50000 0
187500 -37500 0
200000 -37500 0
187500 -37500 0
200000 -37500 0
187500 -25000 0
200000 -25000 0
93750 -56250 0
100000 -56250 0
93750 -50000 0
100000 -50000 0
68750 -50000 0
75000 -50000 0
68750 -43750 0
75000 -43750 0
75000 -50000 0
81250 -50000 0
75000 -43750 0
81250 -43750 0
81250 -50000 0
87500 -50000 0
81250 -43750 0
87500 -43750 0
81250 -43750 0
87500 -43750 0
81250 -37500 0
87500 -37500 0
112500 -100000 0
118750 -100000 0
112500 -93750 0
118750 -93750 0
112500 -93750 0
118750 -93750 0
112500 -87500 0
118750 -87500 0
118750 -93750 0
125000 -93750 0
118750 -87500 0
125000 -87500 0
112500 -87500 0
118750 -87500 0
112500 -81250 0
118750 -81250 0
112500 -81250 0
118750 -81250 0
112500 -75000 0
118750 -75000 0
118750 -81250 0
125000 -81250 0
118750 -75000 0
125000 -75000 0
100000 -75000 0
106250 -75000 0
100000 -68750 0
106250 -68750 0
106250 -75000 0
112500 -75000 0
106250 -68750 0
112500 -68750 0
112500 -25000 0
118750 -25000 0
112500 -18750 0
118750 -18750 0
100000 -37500 0
106250 -37500 0
100000 -31250 0
106250 -31250 0
106250 -31250 0
112500 -31250 0
106250 -25000 0
112500 -25000 0
87500 -50000 0
93750 -50000 0
87500 -43750 0
93750 -43750 0
93750 -50000 0
100000 -50000 0
93750 -43750 0
100000 -43750 0
100000 -56250 0
106250 -56250 0
100000 -50000 0
106250 -50000 0
106250 -56250 0
112500 -56250 0
106250 -50000 0
112500 -50000 0
112500 -56250 0
118750 -56250 0
112500 -50000 0
118750 -50000 0
118750 -56250 0
125000 -56250 0
118750 -50000 0
125000 -50000 0
150000 -100000 0
156250 -100000 0
150000 -93750 0
156250 -93750 0
156250 -100000 0
162500 -100000 0
156250 -93750 0
162500 -93750 0
150000 -93750 0
156250 -93750 0
150000 -87500 0
156250 -87500 0
156250 -93750 0
162500 -93750 0
156250 -87500 0
162500 -87500 0
150000 -87500 0
156250 -87500 0
150000 -81250 0
156250 -81250 0
156250 -87500 0
162500 -87500 0
156250 -81250 0
162500 -81250 0
150000 -81250 0
156250 -81250 0
150000 -75000 0
156250 -75000 0
156250 -81250 0
162500 -81250 0
156250 -75000 0
162500 -75000 0
100000 -50000 0
106250 -50000 0
100000 -43750 0
106250 -43750 0
106250 -50000 0
112500 -50000 0
106250 -43750 0
112500 -43750 0
143750 -25000 0
150000 -25000 0
143750 -18750 0
150000 -18750 0
131250 -37500 0
137500 -37500 0
131250 -31250 0
137500 -31250 0
137500 -37500 0
143750 -37500 0
137500 -31250 0
143750 -31250 0
143750 -37500 0
150000 -37500 0
143750 -31250 0
150000 -31250 0
143750 -31250 0
150000 -31250 0
143750 -25000 0
150000 -25000 0
150000 -25000 0
156250 -25000 0
150000 -18750 0
156250 -18750 0
156250 -25000 0
162500 -25000 0
156250 -18750 0
162500 -18750 0
150000 -18750 0
156250 -18750 0
150000 -12500 0
156250 -12500 0
156250 -18750 0
162500 -18750 0
156250 -12500 0
162500 -12500 0
162500 -100000 0
168750 -100000 0
162500 -93750 0
168750 -93750 0
168750 -100000 0
175000 -100000 0
168750 -93750 0
175000 -93750 0
162500 -93750 0
168750 -93750 0
162500 -87500 0
168750 -87500 0
168750 -93750 0
175000 -93750 0
168750 -87500 0
175000 -87500 0
150000 -12500 0
156250 -12500 0
150000 -6250 0
156250 -6250 0
156250 -12500 0
162500 -12500 0
156250 -6250 0
162500 -6250 0
150000 -6250 0
156250 -6250 0
150000 0 0
156250 0 0
156250 -6250 0
162500 -6250 0
156250 0 0
162500 0 0
162500 -87500 0
168750 -87500 0
162500 -81250 0
168750 -81250 0
168750 -87500 0
175000 -87500 0
168750 -81250 0
175000 -81250 0
162500 -81250 0
168750 -81250 0
162500 -75000 0
168750 -75000 0
168750 -81250 0
175000 -81250 0
168750 -75000 0
175000 -75000 0
112500 -50000 0
118750 -50000 0
112500 -43750 0
118750 -43750 0
118750 -50000 0
125000 -50000 0
118750 -43750 0
125000 -43750 0
112500 -43750 0
118750 -43750 0
112500 -37500 0
118750 -37500 0
118750 -43750 0
125000 -43750 0
118750 -37500 0
125000 -37500 0
125000 -25000 0
131250 -25000 0
125000 -18750 0
131250 -18750 0
131250 -25000 0
137500 -25000 0
131250 -18750 0
137500 -18750 0
125000 -18750 0
131250 -18750 0
125000 -12500 0
131250 -12500 0
131250 -18750 0
137500 -18750 0
131250 -12500 0
137500 -12500 0
125000 -50000 0
131250 -50000 0
125000 -43750 0
131250 -43750 0
131250 -50000 0
137500 -50000 0
131250 -43750 0
137500 -43750 0
125000 -43750 0
131250 -43750 0
125000 -37500 0
131250 -37500 0
131250 -43750 0
137500 -43750 0
131250 -37500 0
137500 -37500 0
137500 -50000 0
143750 -50000 0
137500 -43750 0
143750 -43750 0
143750 -50000 0
150000 -50000 0
143750 -43750 0
150000 -43750 0
137500 -43750 0
143750 -43750 0
137500 -37500 0
143750 -37500 0
143750 -43750 0
150000 -43750 0
143750 -37500 0
150000 -37500 0
162500 -12500 0
168750 -12500 0
162500 -6250 0
168750 -6250 0
168750 -12500 0
175000 -12500 0
168750 -6250 0
175000 -6250 0
162500 -6250 0
168750 -6250 0
162500 0 0
168750 0 0
168750 -6250 0
175000 -6250 0
168750 0 0
175000 0 0
125000 -75000 0
131250 -75000 0
125000 -68750 0
131250 -68750 0
131250 -75000 0
137500 -75000 0
131250 -68750 0
137500 -68750 0
125000 -68750 0
131250 -68750 0
125000 -62500 0
131250 -62500 0
131250 -68750 0
137500 -68750 0
131250 -62500 0
137500 -62500 0
137500 -75000 0
143750 -75000 0
137500 -68750 0
143750 -68750 0
143750 -75000 0
150000 -75000 0
143750 -68750 0
150000 -68750 0
137500 -68750 0
143750 -68750 0
137500 -62500 0
143750 -62500 0
143750 -68750 0
150000 -68750 0
143750 -62500 0
150000 -62500 0
125000 -62500 0
131250 -62500 0
125000 -56250 0
131250 -56250 0
131250 -62500 0
137500 -62500 0
131250 -56250 0
137500 -56250 0
125000 -56250 0
131250 -56250 0
125000 -50000 0
131250 -50000 0
131250 -56250 0
137500 -56250 0
131250 -50000 0
137500 -50000 0
137500 -62500 0
143750 -62500 0
137500 -56250 0
143750 -56250 0
143750 -62500 0
150000 -62500 0
143750 -56250 0
150000 -56250 0
137500 -56250 0
143750 -56250 0
137500 -50000 0
143750 -50000 0
143750 -56250 0
150000 -56250 0
143750 -50000 0
150000 -50000 0
175000 -100000 0
181250 -100000 0
175000 -93750 0
181250 -93750 0
181250 -100000 0
187500 -100000 0
181250 -93750 0
187500 -93750 0
175000 -93750 0
181250 -93750 0
175000 -87500 0
181250 -87500 0
181250 -93750 0
187500 -93750 0
181250 -87500 0
187500 -87500 0
187500 -100000 0
193750 -100000 0
187500 -93750 0
193750 -93750 0
193750 -100000 0
200000 -100000 0
193750 -93750 0
200000 -93750 0
187500 -93750 0
193750 -93750 0
187500 -87500 0
193750 -87500 0
193750 -93750 0
200000 -93750 0
193750 -87500 0
200000 -87500 0
175000 -87500 0
181250 -87500 0
175000 -81250 0
181250 -81250 0
181250 -87500 0
187500 -87500 0
181250 -81250 0
187500 -81250 0
175000 -81250 0
181250 -81250 0
175000 -75000 0
181250 -75000 0
181250 -81250 0
187500 -81250 0
181250 -75000 0
187500 -75000 0
187500 -87500 0
193750 -87500 0
187500 -81250 0
193750 -81250 0
193750 -87500 0
200000 -87500 0
193750 -81250 0
200000 -81250 0
187500 -81250 0
193750 -81250 0
187500 -75000 0
193750 -75000 0
193750 -81250 0
200000 -81250 0
193750 -75000 0
200000 -75000 0
150000 -75000 0
156250 -75000 0
150000 -68750 0
156250 -68750 0
156250 -75000 0
162500 -75000 0
156250 -68750 0
162500 -68750 0
150000 -68750 0
156250 -68750 0
150000 -62500 0
156250 -62500 0
156250 -68750 0
162500 -68750 0
156250 -62500 0
162500 -62500 0
162500 -75000 0
168750 -75000 0
162500 -68750 0
168750 -68750 0
168750 -75000 0
175000 -75000 0
168750 -68750 0
175000 -68750 0
162500 -68750 0
168750 -68750 0
162500 -62500 0
168750 -62500 0
168750 -68750 0
175000 -68750 0
168750 -62500 0
175000 -62500 0
175000 -75000 0
181250 -75000 0
175000 -68750 0
181250 -68750 0
181250 -75000 0
187500 -75000 0
181250 -68750 0
187500 -68750 0
175000 -68750 0
181250 -68750 0
175000 -62500 0
181250 -62500 0
181250 -68750 0
187500 -68750 0
181250 -62500 0
187500 -62500 0
150000 -37500 0
156250 -37500 0
150000 -31250 0
156250 -31250 0
156250 -37500 0
162500 -37500 0
156250 -31250 0
162500 -31250 0
150000 -31250 0
156250 -31250 0
150000 -25000 0
156250 -25000 0
156250 -31250 0
162500 -31250 0
156250 -25000 0
162500 -25000 0
162500 -37500 0
168750 -37500 0
162500 -31250 0
168750 -31250 0
168750 -37500 0
175000 -37500 0
168750 -31250 0
175000 -31250 0
162500 -31250 0
168750 -31250 0
162500 -25000 0
168750 -25000 0
168750 -31250 0
175000 -31250 0
168750 -25000 0
175000 -25000 0
175000 -37500 0
181250 -37500 0
175000 -31250 0
181250 -31250 0
181250 -37500 0
187500 -37500 0
181250 -31250 0
187500 -31250 0
175000 -31250 0
181250 -31250 0
175000 -25000 0
181250 -25000 0
181250 -31250 0
187500 -31250 0
181250 -25000 0
187500 -25000 0
175000 -25000 0
181250 -25000 0
175000 -18750 0
181250 -18750 0
181250 -25000 0
187500 -25000 0
181250 -18750 0
187500 -18750 0
175000 -18750 0
181250 -18750 0
175000 -12500 0
181250 -12500 0
181250 -18750 0
187500 -18750 0
181250 -12500 0
187500 -12500 0
187500 -25000 0
193750 -25000 0
187500 -18750 0
193750 -18750 0
193750 -25000 0
200000 -25000 0
193750 -18750 0
200000 -18750 0
187500 -18750 0
193750 -18750 0
187500 -12500 0
193750 -12500 0
193750 -18750 0
200000 -18750 0
193750 -12500 0
200000 -12500 0
175000 -12500 0
181250 -12500 0
175000 -6250 0
181250 -6250 0
181250 -12500 0
187500 -12500 0
181250 -6250 0
187500 -6250 0
175000 -6250 0
181250 -6250 0
175000 0 0
181250 0 0
181250 -6250 0
187500 -6250 0
181250 0 0
187500 0 0
187500 -12500 0
193750 -12500 0
187500 -6250 0
193750 -6250 0
193750 -12500 0
200000 -12500 0
193750 -6250 0
200000 -6250 0
187500 -6250 0
193750 -6250 0
187500 0 0
193750 0 0
193750 -6250 0
200000 -6250 0
[...]
POINT_DATA 26120
SCALARS history_field_xz double 1
LOOKUP_TABLE default
2.42098e+06 2.42098e+06 -5.66241e+07 -5.66241e+07 2.29073e+07 2.29073e+07 9.10461e+06 9.10461e+06 -8.34988e+06 -8.34988e+06 1.83344e+07 1.83344e+07 -1.37371e+06 -1.37371e+06 2.22597e+06 2.22597e+06 -6.13865e+06 -6.13865e+06 -312539 -312539 -1.05199e+07 -1.05199e+07 -1.67776e+06 -1.67776e+06 1.49912e+07 1.49912e+07 3.32609e+07 3.32609e+07 1.09451e+06 1.09451e+06 6.97118e+06 6.97118e+06 -1.17368e+07 -1.17368e+07 -3.15528e+06 -3.15528e+06 -1.03648e+07 -1.03648e+07 5.35245e+06 5.35245e+06 1.96776e+06 1.96776e+06 8.0435e+06 8.0435e+06 -2.25043e+07 -2.25043e+07 1.82327e+07 1.82327e+07 4.21447e+08 4.21447e+08 3.14937e+08 3.14937e+08 2.3645e+08 2.3645e+08 1.06051e+08 1.06051e+08 1.82035e+08 1.82035e+08 1.96541e+08 1.96541e+08 1.9296e+08 1.9296e+08 2.81738e+08 2.81738e+08 4.31371e+08 4.31371e+08 2.77948e+08 2.77948e+08 2.7709e+08 2.7709e+08 4.9394e+07 4.9394e+07 -6.34442e+07 -6.34442e+07 -7.38853e+07 -7.38853e+07 4.80245e+07 4.80245e+07 4.81943e+07 4.81943e+07 4.85034e+07 4.85034e+07 -7.94716e+06 -7.94716e+06 -1.19605e+08 -1.19605e+08 5.92558e+07 5.92558e+07 -8.2235e+06 -8.2235e+06 -7.75851e+07 -7.75851e+07 6.53061e+07 6.53061e+07 5.87217e+07 5.87217e+07 6.71372e+07 6.71372e+07 -5.14807e+08 -5.14807e+08 9.55095e+07 9.55095e+07 -1.58336e+08 -1.58336e+08 2.078e+08 2.078e+08 1.27722e+08 1.27722e+08 -3.31922e+07 -3.31922e+07 1.75715e+08 1.75715e+08 2.00682e+07 2.00682e+07 1.85496e+08 1.85496e+08 3.35434e+07 3.35434e+07 5.53799e+07 5.53799e+07 5.99641e+07 5.99641e+07 6.99922e+07 6.99922e+07 5.9879e+07 5.9879e+07 5.11114e+07 5.11114e+07 2.95219e+07 2.95219e+07 5.38252e+07 5.38252e+07 4.85519e+07 4.85519e+07 -1.84585e+07 -1.84585e+07 1.01419e+07 1.01419e+07 2.94727e+07 2.94727e+07 -5.50381e+07 -5.50381e+07 8.77676e+07 8.77676e+07 4.25881e+07 4.25881e+07 6.49639e+07 6.49639e+07 9.80402e+07 9.80402e+07 5.1359e+07 5.1359e+07 -4.58813e+06 -4.58813e+06 1.00177e+07 1.00177e+07 3.4835e+07 3.4835e+07 4.04241e+07 4.04241e+07 -3.63442e+06 -3.63442e+06 1.29929e+07 1.29929e+07 4.30043e+07 4.30043e+07 8.50314e+07 8.50314e+07 6.07345e+07 6.07345e+07 7.99372e+07 7.99372e+07 3.04284e+07 3.04284e+07 -2.80161e+07 -2.80161e+07 -6.79696e+07 -6.79696e+07 -1.37965e+08 -1.37965e+08 -2.59362e+06 -2.59362e+06 -8.75765e+07 -8.75765e+07 5.49988e+07 5.49988e+07 3.85707e+07 3.85707e+07 2.28308e+07 2.28308e+07 5.29238e+07 5.29238e+07 -7.14758e+06 -7.14758e+06 1.93566e+07 1.93566e+07 3.30417e+07 3.30417e+07 -7.29174e+07 -7.29174e+07 -8.0965e+06 -8.0965e+06 -1.79725e+08 -1.79725e+08 -1.14665e+08 -1.14665e+08 -9.65841e+07 -9.65841e+07 3.26465e+07 3.26465e+07 1.02405e+08 1.02405e+08 4.09244e+07 4.09244e+07 1.90077e+07 1.90077e+07 1.28048e+08 1.28048e+08 -8.41912e+06 -8.41912e+06 4.60617e+07 4.60617e+07 5.18898e+07 5.18898e+07 -1.44504e+08 -1.44504e+08 -1.47827e+08 -1.47827e+08 -7.17967e+07 -7.17967e+07 -1.14882e+08 -1.14882e+08 -1.58625e+08 -1.58625e+08 -1.78341e+08 -1.78341e+08 -1.22027e+08 -1.22027e+08 -1.41721e+08 -1.41721e+08 -1.25647e+07 -1.25647e+07 -1.14575e+07 -1.14575e+07 4.51244e+07 4.51244e+07 2.3201e+07 2.3201e+07 -2.88303e+07 -2.88303e+07 -5.36326e+06 -5.36326e+06 9.61502e+06 9.61502e+06 -1.37866e+07 -1.37866e+07 5.72562e+07 5.72562e+07 1.02297e+08 1.02297e+08 6.01025e+07 6.01025e+07 3.60824e+07 3.60824e+07 1.02297e+08 1.02297e+08 -1.73114e+06 -1.73114e+06 3.60824e+07 3.60824e+07 9.68372e+07 9.68372e+07 -1.7711e+08 -1.7711e+08 -1.92154e+08 -1.92154e+08 -2.31116e+08 -2.31116e+08 -2.48369e+07 -2.48369e+07 -2.56923e+08 -2.56923e+08 1.53281e+08 1.53281e+08 -7.74851e+07 -7.74851e+07 1.08397e+07 1.08397e+07 4.03143e+07 4.03143e+07 2.54722e+07 2.54722e+07 1.29431e+07 1.29431e+07 -1.65066e+07 -1.65066e+07 3.41091e+07 3.41091e+07 -5.74059e+07 -5.74059e+07 -9.55567e+06 -9.55567e+06 -9.51388e+07 -9.51388e+07 1.20833e+07 1.20833e+07 -8.57676e+06 -8.57676e+06 1.08087e+07 1.08087e+07 1.32097e+07 1.32097e+07 -4.80839e+06 -4.80839e+06 -4.61711e+06 -4.61711e+06 1.63668e+07 1.63668e+07 5.21346e+07 5.21346e+07 -6.28994e+07 -6.28994e+07 -8.21236e+07 -8.21236e+07 -6.10992e+07 -6.10992e+07 -7.00816e+07 -7.00816e+07 -8.66286e+07 -8.66286e+07 -9.70885e+07 -9.70885e+07 -7.38257e+07 -7.38257e+07 -8.47169e+07 -8.47169e+07 7.69344e+07 7.69344e+07 2.63407e+07 2.63407e+07 8.58718e+07 8.58718e+07 3.89848e+07 3.89848e+07 2.68722e+07 2.68722e+07 -3.29745e+07 -3.29745e+07 4.12076e+07 4.12076e+07 2.63597e+07 2.63597e+07 1.00392e+08 1.00392e+08 6.50136e+07 6.50136e+07 9.53911e+07 9.53911e+07 5.62405e+07 5.62405e+07 5.54242e+07 5.54242e+07 4.08713e+07 4.08713e+07 5.00254e+07 5.00254e+07 6.09663e+07 6.09663e+07 -3.71702e+07 -3.71702e+07 1.02493e+07 1.02493e+07 2.2152e+07 2.2152e+07 3.48315e+07 3.48315e+07 5.92619e+06 5.92619e+06 6.04718e+07 6.04718e+07 3.0911e+07 3.0911e+07 2.94331e+07 2.94331e+07 4.63213e+07 4.63213e+07 4.48501e+07 4.48501e+07 6.60823e+07 6.60823e+07 3.44305e+07 3.44305e+07 3.67538e+07 3.67538e+07 2.19591e+07 2.19591e+07 2.82882e+07 2.82882e+07 1.87288e+07 1.87288e+07 1.40188e+07 1.40188e+07 5.95308e+06 5.95308e+06 1.59885e+07 1.59885e+07 1.1704e+07 1.1704e+07 2.95568e+07 2.95568e+07 2.61397e+07 2.61397e+07 3.09098e+07 3.09098e+07 7.34678e+06 7.34678e+06 -1.49836e+07 -1.49836e+07 -4.65947e+06 -4.65947e+06 -1.7507e+07 -1.7507e+07 -1.70276e+07 -1.70276e+07 -4.65947e+06 -4.65947e+06 2.19172e+07 2.19172e+07 -1.70276e+07 -1.70276e+07 6.806e+06 6.806e+06 3.13564e+07 3.13564e+07 3.28713e+07 3.28713e+07 1.16523e+07 1.16523e+07 6.53986e+06 6.53986e+06 -7.42273e+06 -7.42273e+06 -1.9921e+07 -1.9921e+07 -2.59609e+07 -2.59609e+07 -1.54975e+07 -1.54975e+07 -1.75158e+07 -1.75158e+07 -5.27817e+06 -5.27817e+06 -2.56163e+07 -2.56163e+07 -3.68511e+06 -3.68511e+06 -5.27817e+06 -5.27817e+06 -1.64905e+07 -1.64905e+07 -3.68511e+06 -3.68511e+06 -1.56896e+07 -1.56896e+07 4.59206e+07 4.59206e+07 3.69646e+07 3.69646e+07 1.71375e+07 1.71375e+07 4.38687e+07 4.38687e+07 4.02896e+07 4.02896e+07 3.21223e+07 3.21223e+07 4.72349e+07 4.72349e+07 3.14527e+07 3.14527e+07 -7.56487e+06 -7.56487e+06 2.33372e+07 2.33372e+07 -1.55223e+07 -1.55223e+07 -5.69124e+06 -5.69124e+06 1.84171e+07 1.84171e+07 -652520 -652520 -1.01177e+07 -1.01177e+07 -1.59207e+06 -1.59207e+06 -6.05825e+06 -6.05825e+06 -1.2789e+07 -1.2789e+07 -3.51919e+06 -3.51919e+06 -3.12725e+06 -3.12725e+06 -9.40386e+06 -9.40386e+06 8.69225e+06 8.69225e+06 2.15188e+06 2.15188e+06 6.0568e+06 6.0568e+06 4.42992e+07 4.42992e+07 2.72047e+07 2.72047e+07 4.16637e+07 4.16637e+07 2.36821e+07 2.36821e+07 2.15253e+07 2.15253e+07 5.21702e+06 5.21702e+06 1.87315e+07 1.87315e+07 3.0137e+07 3.0137e+07 2.2331e+07 2.2331e+07 2.10387e+07 2.10387e+07 2.03244e+07 2.03244e+07 2.07281e+07 2.07281e+07 1.60189e+07 1.60189e+07 1.4367e+07 1.4367e+07 1.76063e+07 1.76063e+07 1.2852e+07 1.2852e+07 8.58663e+06 8.58663e+06 1.79367e+07 1.79367e+07 7.07163e+06 7.07163e+06 9.5537e+06 9.5537e+06 1.16353e+07 1.16353e+07 -5.6498e+06 -5.6498e+06 3.25228e+06 3.25228e+06 1.39006e+07 1.39006e+07 -5.6498e+06 -5.6498e+06 3.97471e+06 3.97471e+06 1.39006e+07 1.39006e+07 2.22009e+07 2.22009e+07 938907 938907 -3.50651e+07 -3.50651e+07 2.08222e+07 2.08222e+07 4.50103e+07 4.50103e+07 1.34652e+07 1.34652e+07 3.57946e+07 3.57946e+07 1.2327e+07 1.2327e+07 1.51411e+07 1.51411e+07 3.224e+07 3.224e+07 1.09019e+08 1.09019e+08 1.28826e+07 1.28826e+07 5.5091e+07 5.5091e+07 -3.69542e+07 -3.69542e+07 -8.8401e+07 -8.8401e+07 4.37789e+07 4.37789e+07 -9.74036e+07 -9.74036e+07 -8.57185e+07 -8.57185e+07 -1.14011e+08 -1.14011e+08 -9.60173e+07 -9.60173e+07 -2.36834e+08 -2.36834e+08 1.1198e+08 1.1198e+08 3.99077e+08 3.99077e+08 5.75922e+07 5.75922e+07 4.22508e+08 4.22508e+08 -8.82771e+07 -8.82771e+07 1.54053e+08 1.54053e+08 -3.69443e+07 -3.69443e+07 2.9325e+08 2.9325e+08 3.89557e+08 3.89557e+08 1.64855e+08 1.64855e+08 -1.709e+08 -1.709e+08 2.04871e+08 2.04871e+08 8.69308e+07 8.69308e+07 2.60724e+08 2.60724e+08 -5.80305e+08 -5.80305e+08 -2.62661e+07 -2.62661e+07 2.60724e+08 2.60724e+08 1.7894e+07 1.7894e+07 -2.62661e+07 -2.62661e+07 6.5817e+07 6.5817e+07 -3.49394e+07 -3.49394e+07 -1.18741e+08 -1.18741e+08 1.3682e+07 1.3682e+07 1.27158e+08 1.27158e+08 -5.16367e+07 -5.16367e+07 1.68153e+08 1.68153e+08 1.94874e+08 1.94874e+08 3.35636e+07 3.35636e+07 -6.61269e+07 -6.61269e+07 3.35578e+07 3.35578e+07 1.78649e+08 1.78649e+08 1.74941e+08 1.74941e+08 3.35578e+07 3.35578e+07 -3.75541e+08 -3.75541e+08 1.74941e+08 1.74941e+08 3.18619e+08 3.18619e+08 -4.81508e+08 -4.81508e+08 -2.29588e+08 -2.29588e+08 1.3239e+08 1.3239e+08 6.59983e+07 6.59983e+07 -2.29588e+08 -2.29588e+08 -4.84582e+08 -4.84582e+08 6.59983e+07 6.59983e+07 -2.98155e+08 -2.98155e+08 3.86986e+08 3.86986e+08 2.96273e+08 2.96273e+08 -3.47285e+08 -3.47285e+08 1.2879e+08 1.2879e+08 2.96273e+08 2.96273e+08 3.07149e+08 3.07149e+08 -2.00798e+08 -2.00798e+08 -1.60233e+08 -1.60233e+08 -4.61624e+08 -4.61624e+08 1.07266e+08 1.07266e+08 -2.06808e+08 -2.06808e+08 -8.96509e+08 -8.96509e+08 1.07266e+08 1.07266e+08 -3.40656e+08 -3.40656e+08 6.66437e+07 6.66437e+07 -6.29469e+07 -6.29469e+07 -4.9322e+07 -4.9322e+07 -5.54442e+07 -5.54442e+07 1.43357e+08 1.43357e+08 5.30248e+08 5.30248e+08 8.07722e+07 8.07722e+07 -3.78721e+07 -3.78721e+07 -3.45971e+07 -3.45971e+07 5.70429e+07 5.70429e+07 9.37845e+06 9.37845e+06 3.02181e+07 3.02181e+07 -5.00625e+06 -5.00625e+06 4.53883e+08 4.53883e+08 3.87645e+08 3.87645e+08 4.80975e+07 4.80975e+07 3.15888e+08 3.15888e+08 2.91814e+08 2.91814e+08 -2.5769e+08 -2.5769e+08 9.8903e+07 9.8903e+07 -8.94054e+08 -8.94054e+08 -2.87263e+08 -2.87263e+08 1.44234e+08 1.44234e+08 5.06072e+08 5.06072e+08 -2.87263e+08 -2.87263e+08 2.81358e+08 2.81358e+08 3.0303e+08 3.0303e+08 9.6836e+08 9.6836e+08 9.84187e+08 9.84187e+08 1.63568e+09 1.63568e+09 1.69715e+08 1.69715e+08 3.1831e+08 3.1831e+08 1.86732e+09 1.86732e+09 8.54025e+08 8.54025e+08 2.24566e+08 2.24566e+08 4.00861e+08 4.00861e+08 8.02306e+08 8.02306e+08 3.93173e+08 3.93173e+08 -8.16297e+08 -8.16297e+08 -1.95275e+08 -1.95275e+08 4.20434e+08 4.20434e+08 4.33283e+08 4.33283e+08 3.34017e+08 3.34017e+08 3.309e+08 3.309e+08 1.59925e+08 1.59925e+08 1.12962e+08 1.12962e+08 8.83918e+07 8.83918e+07 -1.07956e+08 -1.07956e+08 1.48724e+08 1.48724e+08 -6.007e+08 -6.007e+08 -1.43608e+08 -1.43608e+08 -2.18948e+08 -2.18948e+08 2.23852e+08 2.23852e+08 -2.5971e+08 -2.5971e+08 -7.41738e+07 -7.41738e+07 -7.62506e+07 -7.62506e+07 -2.20133e+08 -2.20133e+08 -2.15414e+08 -2.15414e+08 -9.71595e+07 -9.71595e+07 -1.80025e+08 -1.80025e+08 5.75015e+08 5.75015e+08 3.10827e+07 3.10827e+07 1.91752e+08 1.91752e+08 2.82474e+08 2.82474e+08 5.41704e+08 5.41704e+08 1.22107e+08 1.22107e+08 9.62395e+07 9.62395e+07 1.01456e+08 1.01456e+08 1.38217e+08 1.38217e+08 1.85745e+08 1.85745e+08 3.01291e+08 3.01291e+08 3.99099e+08 3.99099e+08 5.85175e+08 5.85175e+08 -1.67827e+07 -1.67827e+07 6.21065e+07 6.21065e+07 6.58292e+08 6.58292e+08 3.44461e+08 3.44461e+08 -5.51817e+07 -5.51817e+07 2.42533e+08 2.42533e+08 1.32891e+08 1.32891e+08 4.63845e+08 4.63845e+08 3.37453e+08 3.37453e+08 1.32891e+08 1.32891e+08 5.61358e+08 5.61358e+08 3.37453e+08 3.37453e+08 3.09658e+08 3.09658e+08 4.21553e+08 4.21553e+08 -1.09156e+08 -1.09156e+08 3.54505e+07 3.54505e+07 -1.9036e+08 -1.9036e+08 -1.44422e+08 -1.44422e+08 -5.30385e+07 -5.30385e+07 7.77405e+07 7.77405e+07 3.07104e+07 3.07104e+07 -3.86671e+08 -3.86671e+08 6.12557e+07 6.12557e+07 3.07104e+07 3.07104e+07 -4.61395e+07 -4.61395e+07 8.66216e+07 8.66216e+07 4.82249e+07 4.82249e+07 6.77238e+08 6.77238e+08 2.60196e+08 2.60196e+08 -2.66495e+08 -2.66495e+08 6.1523e+07 6.1523e+07 1.69501e+08 1.69501e+08 -8.27084e+07 -8.27084e+07 2.35279e+07 2.35279e+07 -1.6441e+08 -1.6441e+08 1.77558e+08 1.77558e+08 1.03475e+08 1.03475e+08 1.03475e+08 1.03475e+08 -2.75213e+08 -2.75213e+08 -2.09517e+08 -2.09517e+08 -1.64516e+08 -1.64516e+08 -1.01687e+08 -1.01687e+08 -1.53649e+08 -1.53649e+08 -1.72893e+08 -1.72893e+08 -6.75583e+08 -6.75583e+08 -1.53649e+08 -1.53649e+08 -1.03423e+08 -1.03423e+08 9.7639e+07 9.7639e+07 -9.02061e+06 -9.02061e+06 1.07243e+08 1.07243e+08 3.09883e+08 3.09883e+08 -1.21278e+06 -1.21278e+06 3.06285e+07 3.06285e+07 2.79773e+08 2.79773e+08 7.48085e+07 7.48085e+07 5.97652e+08 5.97652e+08 3.68969e+08 3.68969e+08 2.55202e+08 2.55202e+08 2.45273e+08 2.45273e+08 3.68969e+08 3.68969e+08 2.00802e+08 2.00802e+08 2.56044e+08 2.56044e+08 3.72798e+08 3.72798e+08 3.08723e+07 3.08723e+07 -7.24347e+08 -7.24347e+08 7.37223e+07 7.37223e+07 -2.70753e+08 -2.70753e+08 9.29546e+07 9.29546e+07 3.92778e+08 3.92778e+08 7.69821e+08 7.69821e+08 1.06947e+08 1.06947e+08 4.93826e+08 4.93826e+08 5.93705e+08 5.93705e+08 4.88775e+08 4.88775e+08 7.22128e+08 7.22128e+08 7.27553e+08 7.27553e+08 5.73159e+08 5.73159e+08 5.80694e+08 5.80694e+08 5.06558e+08 5.06558e+08 4.42227e+08 4.42227e+08 1.16405e+08 1.16405e+08 5.06558e+08 5.06558e+08 4.65658e+08 4.65658e+08 4.65166e+08 4.65166e+08 1.72786e+08 1.72786e+08 1.34909e+08 1.34909e+08 2.85525e+08 2.85525e+08 -1.09291e+08 -1.09291e+08 3.29748e+08 3.29748e+08 2.85525e+08 2.85525e+08 2.63556e+08 2.63556e+08 3.76421e+08 3.76421e+08 1.78253e+08 1.78253e+08 -1.98496e+07 -1.98496e+07 1.74834e+08 1.74834e+08 1.561e+08 1.561e+08 1.50825e+08 1.50825e+08 1.74834e+08 1.74834e+08 2.04619e+08 2.04619e+08 1.39356e+08 1.39356e+08 2.03574e+08 2.03574e+08 1.39008e+08 1.39008e+08 1.06427e+08 1.06427e+08 2.30884e+08 2.30884e+08 1.40426e+08 1.40426e+08 1.06427e+08 1.06427e+08 1.67225e+08 1.67225e+08 1.79129e+08 1.79129e+08 2.50816e+08 2.50816e+08 -2.98601e+08 -2.98601e+08 -1.20084e+08 -1.20084e+08 4.81289e+07 4.81289e+07 -6.21318e+07 -6.21318e+07 -2.01573e+08 -2.01573e+08 5.49771e+07 5.49771e+07 -6.03016e+06 -6.03016e+06 6.23187e+07 6.23187e+07 8.88108e+07 8.88108e+07 7.72387e+07 7.72387e+07 1.56984e+08 1.56984e+08 6.79139e+07 6.79139e+07 4.6988e+07 4.6988e+07 5.32757e+07 5.32757e+07 3.62578e+07 3.62578e+07 4.79319e+07 4.79319e+07 9.23455e+07 9.23455e+07 1.92767e+08 1.92767e+08 1.2055e+07 1.2055e+07 3.9591e+07 3.9591e+07 1.70405e+08 1.70405e+08 1.96241e+07 1.96241e+07 3.9591e+07 3.9591e+07 3.82542e+07 3.82542e+07 4.42802e+08 4.42802e+08 8.03018e+07 8.03018e+07 3.73608e+08 3.73608e+08 3.21893e+08 3.21893e+08 8.38217e+07 8.38217e+07 3.67551e+08 3.67551e+08 1.26196e+08 1.26196e+08 3.5861e+08 3.5861e+08 4.92617e+07 4.92617e+07 2.24144e+08 2.24144e+08 2.70386e+08 2.70386e+08 -1.6911e+08 -1.6911e+08 3.17917e+08 3.17917e+08 2.60994e+08 2.60994e+08 -2.30623e+08 -2.30623e+08 4.61254e+08 4.61254e+08 3.47069e+08 3.47069e+08 5.64393e+08 5.64393e+08 6.2805e+08 6.2805e+08 3.90671e+08 3.90671e+08 5.76607e+08 5.76607e+08 1.41572e+08 1.41572e+08 3.51022e+08 3.51022e+08 2.28563e+08 2.28563e+08 -4.46484e+08 -4.46484e+08 -5.35126e+08 -5.35126e+08 -3.43268e+08 -3.43268e+08 -3.85195e+08 -3.85195e+08 -4.24488e+08 -4.24488e+08 -1.43563e+09 -1.43563e+09 -4.4374e+08 -4.4374e+08 1.59047e+08 1.59047e+08 2.68933e+07 2.68933e+07 9.44881e+08 9.44881e+08 9.37624e+08 9.37624e+08 -4.18658e+07 -4.18658e+07 2.63389e+08 2.63389e+08 8.66366e+08 8.66366e+08 8.59843e+08 8.59843e+08 2.30432e+08 2.30432e+08 -1.60508e+09 -1.60508e+09 1.0385e+08 1.0385e+08 7.64028e+07 7.64028e+07 -7.40434e+08 -7.40434e+08 -2.12536e+09 -2.12536e+09 -9.86919e+08 -9.86919e+08 -7.60362e+08 -7.60362e+08 -1.13432e+09 -1.13432e+09 3.31179e+08 3.31179e+08 1.09355e+08 1.09355e+08 3.07586e+08 3.07586e+08 2.95114e+08 2.95114e+08 8.50167e+07 8.50167e+07 1.70659e+08 1.70659e+08 2.58573e+08 2.58573e+08 3.9636e+08 3.9636e+08 3.09623e+07 3.09623e+07 -9.25055e+08 -9.25055e+08 1.40167e+07 1.40167e+07 8.49636e+08 8.49636e+08 8.95618e+08 8.95618e+08 6.13838e+07 6.13838e+07 -2.5405e+07 -2.5405e+07 7.28607e+07 7.28607e+07 9.2496e+06 9.2496e+06 1.67115e+07 1.67115e+07 7.28607e+07 7.28607e+07 1.62221e+08 1.62221e+08 1.67115e+07 1.67115e+07 1.38947e+08 1.38947e+08 1.50415e+08 1.50415e+08 1.22427e+08 1.22427e+08 1.27141e+08 1.27141e+08 4.46988e+07 4.46988e+07 1.22427e+08 1.22427e+08 1.10379e+08 1.10379e+08 4.46988e+07 4.46988e+07 8.62216e+07 8.62216e+07 -2.54362e+08 -2.54362e+08 -1.6062e+08 -1.6062e+08 -2.39905e+08 -2.39905e+08 -1.53287e+08 -1.53287e+08 -1.6062e+08 -1.6062e+08 -4.85163e+07 -4.85163e+07 -1.53287e+08 -1.53287e+08 -3.21011e+07 -3.21011e+07 -1.50017e+08 -1.50017e+08 -9.23628e+07 -9.23628e+07 -1.33586e+08 -1.33586e+08 -7.09927e+07 -7.09927e+07 -9.23628e+07 -9.23628e+07 -5.92189e+07 -5.92189e+07 -7.09927e+07 -7.09927e+07 -7.66028e+07 -7.66028e+07 -5.77434e+07 -5.77434e+07 -4.08332e+06 -4.08332e+06 -3.03414e+07 -3.03414e+07 1.16211e+07 1.16211e+07 -4.08332e+06 -4.08332e+06 4.63881e+07 4.63881e+07 1.16211e+07 1.16211e+07 5.88616e+07 5.88616e+07 1.47488e+07 1.47488e+07 -2.44821e+08 -2.44821e+08 2.94465e+07 2.94465e+07 -4.96513e+08 -4.96513e+08 -2.44821e+08 -2.44821e+08 9.92827e+06 9.92827e+06 -4.96513e+08 -4.96513e+08 -1.67982e+09 -1.67982e+09 3.3881e+06 3.3881e+06 -2.13806e+08 -2.13806e+08 -2.74046e+08 -2.74046e+08 -1.19096e+08 -1.19096e+08 -2.13806e+08 -2.13806e+08 -3.49413e+08 -3.49413e+08 -1.19096e+08 -1.19096e+08 -1.02559e+08 -1.02559e+08 9.57758e+07 9.57758e+07 1.12195e+08 1.12195e+08 -6.02724e+07 -6.02724e+07 8.20847e+07 8.20847e+07 -2.40668e+08 -2.40668e+08 4.10972e+07 4.10972e+07 8.20847e+07 8.20847e+07 3.39822e+07 3.39822e+07 -1.93697e+08 -1.93697e+08 5.6562e+06 5.6562e+06 1.51851e+08 1.51851e+08 -2.04201e+07 -2.04201e+07 4.67238e+06 4.67238e+06 -6.83924e+07 -6.83924e+07 -3.48719e+08 -3.48719e+08 -4.85401e+07 -4.85401e+07 -7.55574e+07 -7.55574e+07 6.04433e+07 6.04433e+07 -6.20812e+07 -6.20812e+07 1.84862e+07 1.84862e+07 3.03568e+07 3.03568e+07 -4.68035e+07 -4.68035e+07 -8.99338e+06 -8.99338e+06 -3.13831e+07 -3.13831e+07 -7.98927e+07 -7.98927e+07 -3.58507e+07 -3.58507e+07 -5.81475e+07 -5.81475e+07 -8.31677e+07 -8.31677e+07 -2.79122e+07 -2.79122e+07 -6.56771e+07 -6.56771e+07 -7.70158e+07 -7.70158e+07 -5.30212e+07 -5.30212e+07 -1.7483e+07 -1.7483e+07 -3.54743e+07 -3.54743e+07 -4.77592e+06 -4.77592e+06 1.25081e+07 1.25081e+07 -6.37815e+07 -6.37815e+07 -1.98636e+07 -1.98636e+07 -1.29823e+07 -1.29823e+07 7.40849e+06 7.40849e+06 3.81722e+07 3.81722e+07 1.90531e+08 1.90531e+08 5.24203e+07 5.24203e+07 1.1379e+08 1.1379e+08 1.90234e+08 1.90234e+08 2.74421e+08 2.74421e+08 1.12066e+08 1.12066e+08 2.5809e+08 2.5809e+08 7.54365e+07 7.54365e+07 1.17824e+08 1.17824e+08 8.67729e+07 8.67729e+07 1.6122e+08 1.6122e+08 9.23707e+07 9.23707e+07 1.88419e+08 1.88419e+08 1.38825e+08 1.38825e+08 1.27236e+08 1.27236e+08 2.79423e+08 2.79423e+08 5.57389e+08 5.57389e+08 2.64308e+08 2.64308e+08 2.51319e+08 2.51319e+08 5.47067e+08 5.47067e+08 2.061e+08 2.061e+08 2.40215e+08 2.40215e+08 2.65792e+08 2.65792e+08 2.1194e+08 2.1194e+08 1.72276e+08 1.72276e+08 1.47975e+08 1.47975e+08 1.68206e+08 1.68206e+08 1.51636e+08 1.51636e+08 3.03842e+08 3.03842e+08 1.49915e+08 1.49915e+08 -4.3684e+07 -4.3684e+07 2.22106e+08 2.22106e+08 3.30466e+07 3.30466e+07 2.82212e+08 2.82212e+08 -5.62811e+07 -5.62811e+07 -7.32768e+07 -7.32768e+07 -7.03785e+08 -7.03785e+08 -1.58323e+08 -1.58323e+08 -4.80285e+08 -4.80285e+08 2.20745e+08 2.20745e+08 1.12248e+08 1.12248e+08 -1.245e+08 -1.245e+08 3.50728e+08 3.50728e+08 1.34403e+08 1.34403e+08 2.77124e+08 2.77124e+08 3.71108e+08 3.71108e+08 9.78409e+08 9.78409e+08 7.06062e+07 7.06062e+07 1.7268e+08 1.7268e+08 -7.21246e+07 -7.21246e+07 4.68792e+07 4.68792e+07 1.48831e+08 1.48831e+08 1.00547e+08 1.00547e+08 2.49221e+07 2.49221e+07 4.03026e+07 4.03026e+07 -1.1046e+08 -1.1046e+08 3.94371e+07 3.94371e+07 1.73148e+08 1.73148e+08 3.9036e+07 3.9036e+07 5.7451e+07 5.7451e+07 2.87319e+07 2.87319e+07 5.54256e+07 5.54256e+07 7.45647e+07 7.45647e+07 1.24135e+08 1.24135e+08 6.07626e+07 6.07626e+07 6.19941e+07 6.19941e+07 -3.24339e+07 -3.24339e+07 7.54931e+07 7.54931e+07 -1.08812e+08 -1.08812e+08 -1.82471e+07 -1.82471e+07 -9.97802e+07 -9.97802e+07 4.88323e+07 4.88323e+07 1.61153e+07 1.61153e+07 9.33169e+07 9.33169e+07 4.09176e+07 4.09176e+07 -2.65373e+07 -2.65373e+07 -7.13618e+07 -7.13618e+07 1.05063e+06 1.05063e+06 -5.94421e+07 -5.94421e+07 2.73477e+08 2.73477e+08 2.65718e+08 2.65718e+08 2.17349e+08 2.17349e+08 1.74313e+08 1.74313e+08 2.79199e+08 2.79199e+08 1.3933e+08 1.3933e+08 1.86337e+08 1.86337e+08 1.93054e+08 1.93054e+08 1.92975e+08 1.92975e+08 1.86321e+08 1.86321e