# vtk DataFile Version 3.0
#This file was generated by the deal.II library on 2016/5/13 at 16:44:38
ASCII
DATASET UNSTRUCTURED_GRID

POINTS 94244 double
193750 -56250 0
200000 -56250 0
193750 -50000 0
200000 -50000 0
181250 -50000 0
187500 -50000 0
181250 -43750 0
187500 -43750 0
187500 -50000 0
193750 -50000 0
187500 -43750 0
193750 -43750 0
193750 -50000 0
200000 -50000 0
193750 -43750 0
200000 -43750 0
187500 -43750 0
193750 -43750 0
187500 -37500 0
193750 -37500 0
193750 -43750 0
200000 -43750 0
193750 -37500 0
200000 -37500 0
165625 -100000 0
168750 -100000 0
165625 -96875 0
168750 -96875 0
168750 -100000 0
171875 -100000 0
168750 -96875 0
171875 -96875 0
153125 -6250 0
156250 -6250 0
153125 -3125 0
156250 -3125 0
156250 -3125 0
159375 -3125 0
156250 0 0
159375 0 0
115625 -46875 0
118750 -46875 0
115625 -43750 0
118750 -43750 0
131250 -18750 0
134375 -18750 0
131250 -15625 0
134375 -15625 0
128125 -46875 0
131250 -46875 0
128125 -43750 0
131250 -43750 0
131250 -46875 0
134375 -46875 0
131250 -43750 0
134375 -43750 0
140625 -46875 0
143750 -46875 0
140625 -43750 0
143750 -43750 0
146875 -46875 0
150000 -46875 0
146875 -43750 0
150000 -43750 0
137500 -43750 0
140625 -43750 0
137500 -40625 0
140625 -40625 0
140625 -43750 0
143750 -43750 0
140625 -40625 0
143750 -40625 0
165625 -3125 0
168750 -3125 0
165625 0 0
168750 0 0
168750 -6250 0
171875 -6250 0
168750 -3125 0
171875 -3125 0
168750 -3125 0
171875 -3125 0
168750 0 0
171875 0 0
171875 -3125 0
175000 -3125 0
171875 0 0
175000 0 0
128125 -68750 0
131250 -68750 0
128125 -65625 0
131250 -65625 0
178125 -25000 0
181250 -25000 0
178125 -21875 0
181250 -21875 0
181250 -25000 0
184375 -25000 0
181250 -21875 0
184375 -21875 0
196875 -15625 0
200000 -15625 0
196875 -12500 0
200000 -12500 0
175000 -3125 0
178125 -3125 0
175000 0 0
178125 0 0
140625 -65625 0
143750 -65625 0
140625 -62500 0
143750 -62500 0
196875 -93750 0
200000 -93750 0
196875 -90625 0
200000 -90625 0
196875 -90625 0
200000 -90625 0
196875 -87500 0
200000 -87500 0
165625 -37500 0
168750 -37500 0
165625 -34375 0
168750 -34375 0
171875 -37500 0
175000 -37500 0
171875 -34375 0
175000 -34375 0
175000 -31250 0
178125 -31250 0
175000 -28125 0
178125 -28125 0
178125 -31250 0
181250 -31250 0
178125 -28125 0
181250 -28125 0
159375 -56250 0
162500 -56250 0
159375 -53125 0
162500 -53125 0
162500 -56250 0
165625 -56250 0
162500 -53125 0
165625 -53125 0
162500 -53125 0
165625 -53125 0
162500 -50000 0
165625 -50000 0
193750 -65625 0
196875 -65625 0
193750 -62500 0
196875 -62500 0
178125 -59375 0
181250 -59375 0
178125 -56250 0
181250 -56250 0
181250 -59375 0
184375 -59375 0
181250 -56250 0
184375 -56250 0
184375 -59375 0
187500 -59375 0
184375 -56250 0
187500 -56250 0
150000 -46875 0
153125 -46875 0
150000 -43750 0
153125 -43750 0
159375 -50000 0
162500 -50000 0
159375 -46875 0
162500 -46875 0
150000 -43750 0
153125 -43750 0
150000 -40625 0
153125 -40625 0
168750 -43750 0
171875 -43750 0
168750 -40625 0
171875 -40625 0
171875 -43750 0
175000 -43750 0
171875 -40625 0
175000 -40625 0
168750 -40625 0
171875 -40625 0
168750 -37500 0
171875 -37500 0
171875 -40625 0
175000 -40625 0
171875 -37500 0
175000 -37500 0
143750 -68750 0
146875 -68750 0
143750 -65625 0
146875 -65625 0
146875 -68750 0
150000 -68750 0
146875 -65625 0
150000 -65625 0
143750 -65625 0
146875 -65625 0
143750 -62500 0
146875 -62500 0
146875 -65625 0
150000 -65625 0
146875 -62500 0
150000 -62500 0
143750 -62500 0
146875 -62500 0
143750 -59375 0
146875 -59375 0
146875 -62500 0
150000 -62500 0
146875 -59375 0
150000 -59375 0
143750 -59375 0
146875 -59375 0
143750 -56250 0
146875 -56250 0
146875 -59375 0
150000 -59375 0
146875 -56250 0
150000 -56250 0
168750 -31250 0
171875 -31250 0
168750 -28125 0
171875 -28125 0
171875 -31250 0
175000 -31250 0
171875 -28125 0
175000 -28125 0
168750 -28125 0
171875 -28125 0
168750 -25000 0
171875 -25000 0
171875 -28125 0
175000 -28125 0
171875 -25000 0
175000 -25000 0
175000 -37500 0
178125 -37500 0
175000 -34375 0
178125 -34375 0
178125 -37500 0
181250 -37500 0
178125 -34375 0
181250 -34375 0
175000 -34375 0
178125 -34375 0
175000 -31250 0
178125 -31250 0
178125 -34375 0
181250 -34375 0
178125 -31250 0
181250 -31250 0
181250 -37500 0
184375 -37500 0
181250 -34375 0
184375 -34375 0
184375 -37500 0
187500 -37500 0
184375 -34375 0
187500 -34375 0
181250 -34375 0
184375 -34375 0
181250 -31250 0
184375 -31250 0
184375 -34375 0
187500 -34375 0
184375 -31250 0
187500 -31250 0
168750 -56250 0
171875 -56250 0
168750 -53125 0
171875 -53125 0
171875 -56250 0
175000 -56250 0
171875 -53125 0
175000 -53125 0
168750 -53125 0
171875 -53125 0
168750 -50000 0
171875 -50000 0
171875 -53125 0
175000 -53125 0
171875 -50000 0
175000 -50000 0
175000 -56250 0
178125 -56250 0
175000 -53125 0
178125 -53125 0
178125 -56250 0
181250 -56250 0
178125 -53125 0
181250 -53125 0
175000 -53125 0
178125 -53125 0
175000 -50000 0
178125 -50000 0
178125 -53125 0
181250 -53125 0
178125 -50000 0
181250 -50000 0
181250 -56250 0
184375 -56250 0
181250 -53125 0
184375 -53125 0
184375 -56250 0
187500 -56250 0
184375 -53125 0
187500 -53125 0
181250 -53125 0
184375 -53125 0
181250 -50000 0
184375 -50000 0
184375 -53125 0
187500 -53125 0
184375 -50000 0
187500 -50000 0
168750 -50000 0
171875 -50000 0
168750 -46875 0
171875 -46875 0
171875 -50000 0
175000 -50000 0
171875 -46875 0
175000 -46875 0
168750 -46875 0
171875 -46875 0
168750 -43750 0
171875 -43750 0
171875 -46875 0
175000 -46875 0
171875 -43750 0
175000 -43750 0
187500 -37500 0
190625 -37500 0
187500 -34375 0
190625 -34375 0
190625 -37500 0
193750 -37500 0
190625 -34375 0
193750 -34375 0
187500 -34375 0
190625 -34375 0
187500 -31250 0
190625 -31250 0
190625 -34375 0
193750 -34375 0
190625 -31250 0
193750 -31250 0
193750 -37500 0
196875 -37500 0
193750 -34375 0
196875 -34375 0
196875 -37500 0
200000 -37500 0
196875 -34375 0
200000 -34375 0
193750 -34375 0
196875 -34375 0
193750 -31250 0
196875 -31250 0
196875 -34375 0
200000 -34375 0
196875 -31250 0
200000 -31250 0
187500 -87500 0
190625 -87500 0
187500 -84375 0
190625 -84375 0
190625 -87500 0
193750 -87500 0
190625 -84375 0
193750 -84375 0
187500 -84375 0
190625 -84375 0
187500 -81250 0
190625 -81250 0
190625 -84375 0
193750 -84375 0
190625 -81250 0
193750 -81250 0
193750 -87500 0
196875 -87500 0
193750 -84375 0
196875 -84375 0
196875 -87500 0
200000 -87500 0
196875 -84375 0
200000 -84375 0
193750 -84375 0
196875 -84375 0
193750 -81250 0
196875 -81250 0
196875 -84375 0
200000 -84375 0
196875 -81250 0
200000 -81250 0
187500 -81250 0
190625 -81250 0
187500 -78125 0
190625 -78125 0
190625 -81250 0
193750 -81250 0
190625 -78125 0
193750 -78125 0
187500 -78125 0
190625 -78125 0
187500 -75000 0
190625 -75000 0
190625 -78125 0
193750 -78125 0
190625 -75000 0
193750 -75000 0
193750 -81250 0
196875 -81250 0
193750 -78125 0
196875 -78125 0
196875 -81250 0
200000 -81250 0
196875 -78125 0
200000 -78125 0
193750 -78125 0
196875 -78125 0
193750 -75000 0
196875 -75000 0
196875 -78125 0
200000 -78125 0
196875 -75000 0
200000 -75000 0
187500 -62500 0
190625 -62500 0
187500 -59375 0
190625 -59375 0
190625 -62500 0
193750 -62500 0
190625 -59375 0
193750 -59375 0
187500 -59375 0
190625 -59375 0
187500 -56250 0
190625 -56250 0
190625 -59375 0
193750 -59375 0
190625 -56250 0
193750 -56250 0
193750 -62500 0
196875 -62500 0
193750 -59375 0
196875 -59375 0
196875 -62500 0
200000 -62500 0
196875 -59375 0
200000 -59375 0
193750 -59375 0
196875 -59375 0
193750 -56250 0
196875 -56250 0
196875 -59375 0
200000 -59375 0
196875 -56250 0
200000 -56250 0
187500 -56250 0
190625 -56250 0
187500 -53125 0
190625 -53125 0
190625 -56250 0
193750 -56250 0
190625 -53125 0
193750 -53125 0
187500 -53125 0
190625 -53125 0
187500 -50000 0
190625 -50000 0
190625 -53125 0
193750 -53125 0
190625 -50000 0
193750 -50000 0
175000 -50000 0
178125 -50000 0
175000 -46875 0
178125 -46875 0
178125 -50000 0
181250 -50000 0
178125 -46875 0
181250 -46875 0
175000 -46875 0
178125 -46875 0
175000 -43750 0
178125 -43750 0
178125 -46875 0
181250 -46875 0
178125 -43750 0
181250 -43750 0
175000 -43750 0
178125 -43750 0
175000 -40625 0
178125 -40625 0
178125 -43750 0
181250 -43750 0
178125 -40625 0
181250 -40625 0
175000 -40625 0
178125 -40625 0
175000 -37500 0
178125 -37500 0
178125 -40625 0
181250 -40625 0
178125 -37500 0
181250 -37500 0
181250 -43750 0
184375 -43750 0
181250 -40625 0
184375 -40625 0
184375 -43750 0
187500 -43750 0
184375 -40625 0
187500 -40625 0
181250 -40625 0
184375 -40625 0
181250 -37500 0
184375 -37500 0
184375 -40625 0
187500 -40625 0
184375 -37500 0
187500 -37500 0
4687.5 -81250 0
6250 -81250 0
4687.5 -79687.5 0
6250 -79687.5 0
35937.5 -68750 0
37500 -68750 0
35937.5 -67187.5 0
37500 -67187.5 0
28125 -53125 0
29687.5 -53125 0
28125 -51562.5 0
29687.5 -51562.5 0
29687.5 -53125 0
31250 -53125 0
29687.5 -51562.5 0
31250 -51562.5 0
39062.5 -34375 0
40625 -34375 0
39062.5 -32812.5 0
40625 -32812.5 0
10937.5 -75000 0
12500 -75000 0
10937.5 -73437.5 0
12500 -73437.5 0
15625 -70312.5 0
17187.5 -70312.5 0
15625 -68750 0
17187.5 -68750 0
4687.5 -87500 0
6250 -87500 0
4687.5 -85937.5 0
6250 -85937.5 0
18750 -70312.5 0
20312.5 -70312.5 0
18750 -68750 0
20312.5 -68750 0
3125 -60937.5 0
4687.5 -60937.5 0
3125 -59375 0
4687.5 -59375 0
3125 -59375 0
4687.5 -59375 0
3125 -57812.5 0
4687.5 -57812.5 0
6250 -53125 0
7812.5 -53125 0
6250 -51562.5 0
7812.5 -51562.5 0
7812.5 -53125 0
9375 -53125 0
7812.5 -51562.5 0
9375 -51562.5 0
9375 -53125 0
10937.5 -53125 0
9375 -51562.5 0
10937.5 -51562.5 0
4687.5 -50000 0
6250 -50000 0
4687.5 -48437.5 0
6250 -48437.5 0
4687.5 -48437.5 0
6250 -48437.5 0
4687.5 -46875 0
6250 -46875 0
6250 -48437.5 0
7812.5 -48437.5 0
6250 -46875 0
7812.5 -46875 0
7812.5 -48437.5 0
9375 -48437.5 0
7812.5 -46875 0
9375 -46875 0
9375 -48437.5 0
10937.5 -48437.5 0
9375 -46875 0
10937.5 -46875 0
10937.5 -43750 0
12500 -43750 0
10937.5 -42187.5 0
12500 -42187.5 0
9375 -20312.5 0
10937.5 -20312.5 0
9375 -18750 0
10937.5 -18750 0
0 -15625 0
1562.5 -15625 0
0 -14062.5 0
1562.5 -14062.5 0
6250 -15625 0
[...]
POINT_DATA 94244
SCALARS velocity double 1
LOOKUP_TABLE default
-94.4762 -94.2941 -93.7612 -94.0799 -93.1686 -93.4855 -92.6118 -93.1333 -93.4855 -93.7612 -93.1333 -93.645 -93.7612 -94.0799 -93.645 -94.0142 -93.1333 -93.645 -92.7913 -93.3912 -93.645 -94.0142 -93.3912 -93.7042 -84.3717 -86.592 -85.2258 -88.4548 -86.592 -88.5882 -88.4548 -91.4031 -76.241 -80.0001 -74.7006 -79.4062 -79.4062 -83.5647 -79.2427 -83.8245 -99.4913 -97.1181 -100.414 -98.1783 -78.795 -78.7466 -80.1146 -80.3045 -92.2375 -91.2682 -92.6084 -91.2261 -91.2682 -90.2547 -91.2261 -90.7706 -89.2167 -88.935 -89.8277 -90.3733 -89.3608 -89.6314 -91.206 -90.886 -89.9387 -89.8277 -91.238 -91.2753 -89.8277 -90.3733 -91.2753 -91.0372 -88.6221 -89.3998 -89.3872 -90.9792 -88.4504 -89.4359 -89.3998 -91.3812 -89.3998 -91.3812 -90.9792 -92.7014 -91.3812 -92.704 -92.7014 -95.318 -95.6854 -95.2495 -95.8171 -95.7886 -91.8812 -91.9028 -92.072 -92.4222 -91.9028 -92.3793 -92.4222 -91.6359 -96.8849 -100.113 -100.982 -103.147 -92.704 -95.2497 -95.318 -98.3967 -94.8714 -93.938 -93.5257 -92.7398 -96.5822 -95.0954 -96.0146 -95.9691 -96.0146 -95.9691 -96.4186 -96.6253 -89.8604 -90.1518 -90.032 -90.86 -91.268 -92.3187 -91.588 -92.4747 -92.6306 -92.6917 -92.3419 -92.3138 -92.6917 -92.7528 -92.3138 -92.6973 -90.4174 -91.552 -90.2147 -91.28 -91.552 -92.4985 -91.28 -92.2535 -91.28 -92.2535 -90.8838 -91.2072 -94.77 -95.4666 -95.1311 -95.055 -93.6795 -93.8239 -93.1 -93.3493 -93.8239 -93.9079 -93.3493 -93.5193 -93.9079 -94.4002 -93.5193 -93.6893 -89.6314 -89.8973 -90.886 -90.5322 -89.8052 -90.8838 -90.2844 -90.5749 -90.886 -90.5322 -91.726 -90.8241 -91.2277 -91.3291 -90.4923 -91.2051 -91.3291 -91.4306 -91.2051 -91.8747 -90.4923 -91.2051 -90.1518 -91.268 -91.2051 -91.8747 -91.268 -92.3187 -95.1362 -94.4907 -93.938 -93.3144 -94.4907 -93.8453 -93.3144 -92.6908 -93.938 -93.3144 -92.7398 -92.138 -93.3144 -92.6908 -92.138 -91.5362 -92.7398 -92.138 -91.426 -90.9183 -92.138 -91.5362 -90.9183 -90.4105 -91.426 -90.9183 -90.1123 -89.6985 -90.9183 -90.4105 -89.6985 -89.2848 -91.9779 -92.3043 -91.775 -92.0584 -92.3043 -92.6306 -92.0584 -92.3419 -91.775 -92.0584 -91.572 -91.8126 -92.0584 -92.3419 -91.8126 -92.0532 -92.3187 -92.6082 -92.4747 -92.6499 -92.6082 -92.8977 -92.6499 -92.8252 -92.4747 -92.6499 -92.6306 -92.6917 -92.6499 -92.8252 -92.6917 -92.7528 -92.8977 -92.8445 -92.8252 -92.8681 -92.8445 -92.7913 -92.8681 -92.9109 -92.8252 -92.8681 -92.7528 -92.8916 -92.8681 -92.9109 -92.8916 -93.0304 -93.382 -93.1163 -92.7279 -92.6126 -93.1163 -92.8507 -92.6126 -92.4973 -92.7279 -92.6126 -92.0739 -92.1089 -92.6126 -92.4973 -92.1089 -92.1439 -92.8507 -93.1 -92.4973 -92.8781 -93.1 -93.3493 -92.8781 -93.259 -92.4973 -92.8781 -92.1439 -92.6562 -92.8781 -93.259 -92.6562 -93.1686 -93.3493 -93.5193 -93.259 -93.4232 -93.5193 -93.6893 -93.4232 -93.5874 -93.259 -93.4232 -93.1686 -93.3271 -93.4232 -93.5874 -93.3271 -93.4855 -92.0739 -92.1089 -91.6508 -91.719 -92.1089 -92.1439 -91.719 -91.7872 -91.6508 -91.719 -91.2277 -91.3291 -91.719 -91.7872 -91.3291 -91.4306 -92.7913 -93.0913 -92.9109 -93.1193 -93.0913 -93.3912 -93.1193 -93.3278 -92.9109 -93.1193 -93.0304 -93.1474 -93.1193 -93.3278 -93.1474 -93.2644 -93.3912 -93.5477 -93.3278 -93.6723 -93.5477 -93.7042 -93.6723 -94.0167 -93.3278 -93.6723 -93.2644 -93.7968 -93.6723 -94.0167 -93.7968 -94.3293 -97.3147 -96.7633 -97.2139 -96.9139 -96.7633 -96.2118 -96.9139 -96.6139 -97.2139 -96.9139 -97.1132 -97.0646 -96.9139 -96.6139 -97.0646 -97.0159 -96.2118 -96.4186 -96.6139 -96.7659 -96.4186 -96.6253 -96.7659 -96.9178 -96.6139 -96.7659 -97.0159 -97.1132 -96.7659 -96.9178 -97.1132 -97.2104 -97.1132 -97.0646 -96.7546 -96.8494 -97.0646 -97.0159 -96.8494 -96.9442 -96.7546 -96.8494 -96.396 -96.6342 -96.8494 -96.9442 -96.6342 -96.8725 -97.0159 -97.1132 -96.9442 -97.5111 -97.1132 -97.2104 -97.5111 -98.078 -96.9442 -97.5111 -96.8725 -97.909 -97.5111 -98.078 -97.909 -98.9456 -95.111 -95.1211 -94.4002 -94.6019 -95.1211 -95.1311 -94.6019 -94.8037 -94.4002 -94.6019 -93.6893 -94.0827 -94.6019 -94.8037 -94.0827 -94.4762 -95.1311 -95.055 -94.8037 -94.7201 -95.055 -94.9788 -94.7201 -94.6365 -94.8037 -94.7201 -94.4762 -94.3852 -94.7201 -94.6365 -94.3852 -94.2941 -93.6893 -94.0827 -93.5874 -93.8531 -94.0827 -94.4762 -93.8531 -94.1187 -93.5874 -93.8531 -93.4855 -93.6234 -93.8531 -94.1187 -93.6234 -93.7612 -92.1439 -92.6562 -91.7872 -92.3387 -92.6562 -93.1686 -92.3387 -92.8902 -91.7872 -92.3387 -91.4306 -92.0212 -92.3387 -92.8902 -92.0212 -92.6118 -91.4306 -92.0212 -91.8747 -92.3147 -92.0212 -92.6118 -92.3147 -92.7547 -91.8747 -92.3147 -92.3187 -92.6082 -92.3147 -92.7547 -92.6082 -92.8977 -92.6118 -92.8725 -92.7547 -92.8585 -92.8725 -93.1333 -92.8585 -92.9623 -92.7547 -92.8585 -92.8977 -92.8445 -92.8585 -92.9623 -92.8445 -92.7913 -141.844 -139.569 -141.18 -138.671 -95.8729 -97.3075 -97.555 -97.978 -107.956 -106.408 -108.005 -106.925 -106.408 -105.44 -106.925 -105.084 -112.867 -114.272 -115.197 -114.782 -134.537 -133.621 -133.422 -132.552 -124.148 -120.99 -123.064 -120.246 -136.687 -135.253 -137.184 -137.272 -116.958 -114.51 -117.469 -114.001 -137.673 -131.093 -136.259 -130.938 -136.259 -130.938 -135.238 -129.928 -122.078 -120.307 -121.397 -119.125 -120.307 -118.473 -119.125 -117.191 -118.473 -117.403 -117.191 -115.738 -122.201 -120.23 -121.417 -118.716 -121.417 -118.716 -119.273 -117.729 -118.716 -116.475 -117.729 -115.545 -116.475 -115.053 -115.545 -114.033 -115.053 -113.531 -114.033 -112.764 -107.138 -105.064 -104.498 -102.673 -49.3146 -57.374 -45.7271 -53.4904 0 -6.87407 0 -5.29501 -27.7899 -35.2336 -27.0438 -34.3991 -35.2336 -42.3798 -34.3991 -41.6768 -42.3798 -49.4857 -41.6768 -48.963 -88.5079 -93.302 -84.6862 -89.6791 -75.1502 -80.5167 -71.3835 -76.949 -71.3835 -76.949 -67.5668 -73.6622 -76.949 -83.6794 -73.6622 -80.022 -83.6794 -89.3606 -80.022 -86.2858 -88.4277 -94.917 -86.8664 -92.775 0 -4.09575 0 -4.31102 -38.6665 -44.8938 -35.0952 -41.6769 -44.8938 -50.5688 -41.6769 -47.8634 -35.0952 -41.6769 -32.6946 -39.1329 -32.6946 -39.1329 -30.5265 -37.5317 -39.1329 -45.3113 -37.5317 -44.0004 -37.5317 -44.0004 -36.1878 -43.0289 -53.5498 -60.2457 -50.5688 -57.4268 -60.2457 -67.1071 -57.4268 -64.1916 -50.5688 -57.4268 -47.8634 -55.422 -57.4268 -64.1916 -55.422 -62.6537 -67.1071 -73.1486 -64.1916 -70.7308 -73.1486 -79.5096 -70.7308 -77.4262 -64.1916 -70.7308 -62.6537 -68.8655 -70.7308 -77.4262 -68.8655 -76.3148 -55.422 -62.6537 -53.0923 -60.6772 -45.3113 -53.0923 -44.0004 -51.2269 -53.0923 -60.6772 -51.2269 -59.0079 -62.6537 -68.8655 -60.6772 -68.171 -68.8655 -76.3148 -68.171 -75.8705 -60.6772 -68.171 -59.0079 -67.3253 -79.5096 -86.8664 -77.4262 -84.6366 -86.8664 -92.775 -84.6366 -90.7032 -77.4262 -84.6366 -76.3148 -83.007 -84.6366 -90.7032 -83.007 -89.8354 -92.775 -98.3661 -90.7032 -97.3676 -76.3148 -83.007 -75.8705 -82.4622 -96.9529 -102.851 -95.853 -101.249 -95.853 -101.249 -94.0404 -98.7785 -44.0004 -51.2269 -43.0289 -50.1373 -51.2269 -59.0079 -50.1373 -57.9973 -43.0289 -50.1373 -42.4938 -50.2123 -42.4938 -50.2123 -41.4868 -49.4287 -41.4868 -49.4287 -40.4325 -48.3903 -49.4287 -56.471 -48.3903 -55.021 -56.471 -63.5691 -55.021 -62.1886 -63.5691 -70.597 -62.1886 -69.0788 -79.9265 -86.004 -77.9663 -84.0128 -77.9663 -84.0128 -77.2068 -83.0135 -70.597 -77.2068 -69.0788 -75.8361 -106.647 -106.117 -104.469 -104.048 -111.438 -111.94 -112.573 -113.077 -109.75 -111.433 -109.372 -110.47 -108.337 -107.556 -107.455 -105.387 -110.794 -111.691 -109.854 -110.737 -101.249 -105.792 -98.7785 -104.234 -113.037 -116.492 -114.498 -117.043 -117.706 -119.467 -120.058 -120.641 -119.467 -120.641 -120.641 -121.205 -120.569 -119.686 -119.012 -118.346 -120.641 -121.261 -121.205 -121.809 0 -4.92613 0 -4.61251 -135.835 -137.993 -135.986 -138.198 -138.198 -140.201 -139.489 -141.356 -113.698 -110.794 -112.39 -110.778 -110.794 -108.966 -110.778 -109.996 -98.0434 -96.3969 -99.0258 -97.1648 -108.318 -112.303 -109.479 -112.018 -86.2895 -88.5586 -88.3763 -91.2539 -101.65 -98.663 -100.953 -98.5826 -100.953 -98.5826 -100.675 -98.0332 -98.5742 -99.8917 -100.056 -100.546 -109.996 -107.897 -109.971 -106.208 -107.897 -104.233 -106.208 -104.105 -106.208 -104.105 -105.923 -104.045 -109.118 -106.217 -110.027 -107.633 -102.024 -98.2487 -101.748 -99.3984 -81.9132 -81.5465 -81.5435 -80.3531 -82.5809 -81.5435 -81.7941 -80.8075 -81.5435 -80.3531 -80.8075 -80.0609 -110.377 -108.003 -109.462 -107.956 -109.462 -107.956 -108.871 -108.005 -117 -116.668 -115.896 -115.626 -116.668 -116.676 -115.626 -116.397 -115.727 -116.84 -117.659 -119.617 -115.266 -115.978 -114.951 -114.912 -116.929 -115.896 -116.098 -115.098 -106.639 -109.132 -109.563 -111.436 -112.761 -112.109 -113.094 -112.744 -112.744 -113.177 -113.522 -112.233 -113.713 -113.876 -112.766 -112.261 -113.876 -113.763 -112.261 -112.377 -113.763 -114.013 -112.377 -113.828 -113.828 -115.164 -114.175 -115.835 -116.387 -116.88 -117.178 -117.809 -116.88 -116.857 -117.809 -118.253 -117.178 -117.809 -118.343 -119.005 -117.809 -118.253 -119.005 -119.97 -116.857 -116.816 -118.253 -118.573 -116.816 -116.517 -118.573 -117.219 -118.343 -119.005 -119.051 -120.559 -119.005 -119.97 -120.559 -121.946 -151.581 -151.914 -150.954 -151.69 -96.5668 -99.1914 -97.6777 -99.3209 -149.636 -149.209 -151.926 -151.888 -151.888 -152.487 -154.756 -155.891 -99.1914 -102.085 -99.3209 -103.078 -102.085 -104.129 -103.078 -104.942 -152.997 -153.764 -153.845 -155.085 -151.987 -153.845 -153.372 -154.578 -153.845 -155.085 -154.578 -155.279 -153.764 -154.147 -155.085 -155.273 -154.147 -155.67 -155.273 -157.236 -109.854 -110.737 -110.202 -110.807 -110.737 -111.639 -110.807 -111.167 -154.549 -155.92 -155.67 -157.683 -155.92 -157.363 -157.683 -159.352 -154.202 -154.756 -157.363 -158.157 -154.756 -155.891 -158.157 -159.744 -157.363 -158.157 -159.352 -160.79 -158.157 -159.744 -160.79 -162.98 -155.67 -157.683 -157.236 -159.633 -157.683 -159.352 -159.633 -160.357 -159.352 -160.79 -160.357 -163.252 -160.79 -162.98 -163.252 -165.721 -163.252 -165.721 -165.148 -167.128 -112.698 -114.886 -112.456 -115.26 -125.827 -126.255 -125.969 -127.177 -123.251 -125.498 -125.021 -126.838 -129.447 -131.84 -129.772 -131.745 -128.535 -129.772 -129.009 -130.313 -129.772 -131.745 -130.313 -132.035 -131.84 -133.326 -131.745 -133.07 -133.388 -135.523 -134.095 -136.646 -134.095 -136.646 -134.569 -137.448 -136.646 -139.536 -137.448 -140.626 -135.184 -137.091 -135.886 -138.156 -80.7234 -78.7049 -80.1268 -77.2289 -81.5465 -79.1446 -80.3531 -79.4921 -80.3531 -79.4921 -80.0609 -80.4647 -79.4921 -77.4242 -80.4647 -80.046 -83.834 -83.1728 -85.9016 -85.3715 -80.4647 -80.046 -81.9782 -83.4075 -95.336 -96.6375 -94.6203 -96.6337 -98.6496 -99.7322 -99.2303 -100.296 -101.805 -104.019 -103.562 -105.144 -96.1046 -97.1526 -96.6375 -97.7763 -97.1526 -98.304 -97.7763 -100.089 -96.6375 -97.7763 -96.6337 -97.8577 -111.484 -113.105 -111.675 -114.739 -76.1628 -76.2112 -77.3275 -77.8162 -76.2112 -76.8794 -77.8162 -78.5445 -77.3275 -77.8162 -78.4475 -79.0566 -77.8162 -78.5445 -79.0566 -79.561 -73.5988 -74.9165 -75.2613 -77.0499 -74.9165 -76.5721 -77.0499 -77.7237 -75.2613 -77.0499 -76.8794 -78.042 -76.5721 -76.9891 -77.7237 -79.5329 -76.8794 -78.042 -78.5445 -79.1615 -78.042 -79.121 -79.1615 -80.7182 -78.4475 -79.0566 -78.938 -80.0321 -78.938 -80.0321 -79.9743 -81.1269 -79.6737 -79.9743 -81.1804 -81.8531 -79.9743 -81.1269 -81.8531 -83.8171 -81.1269 -82.32 -83.8171 -85.5762 -82.32 -85.0724 -85.5762 -87.8551 -89.5625 -91.8957 -92.2424 -92.8265 -87.7774 -89.386 -90.1745 -91.8003 -91.3153 -91.273 -92.0218 -93.2954 -93.2954 -94.8419 -95.1438 -95.9004 -94.8419 -95.1008 -95.9004 -95.8078 -95.656 -95.825 -96.2654 -96.9055 -95.1438 -95.9004 -95.1613 -96.3384 -94.5704 -95.1613 -96.2654 -96.147 -95.9004 -95.8078 -96.3384 -96.5378 -95.8078 -95.352 -96.5378 -95.4043 -96.2654 -96.147 -97.815 -97.7138 -122.51 -125.07 -121.014 -123.509 -121.42 -121.689 -123.531 -123.551 -121.689 -122.184 -123.551 -123.848 -123.551 -123.848 -124.562 -124.717 -99.8402 -101.669 -102.652 -103.714 -97.8577 -100.619 -98.3224 -99.8196 -101.669 -102.641 -103.714 -104.13 -102.641 -103.168 -104.13 -104.976 -101.037 -102.482 -103.168 -104.395 -102.482 -104.91 -104.395 -105.408 -103.168 -104.395 -104.976 -105.529 -104.395 -105.408 -105.529 -106.605 -104.394 -104.708 -104.982 -105.267 -104.982 -105.267 -104.4 -104.795 -104.708 -104.481 -105.267 -105.965 -104.481 -105.862 -105.965 -106.083 -105.267 -105.965 -104.795 -105.605 -105.965 -106.083 -105.605 -106.31 -104.13 -104.976 -105.915 -106.189 -105.915 -106.189 -106.939 -106.918 -105.529 -106.605 -106.111 -107.797 -105.862 -106.939 -106.083 -106.67 -106.939 -106.918 -106.67 -107.467 -106.083 -106.67 -106.31 -107.442 -106.67 -107.467 -107.442 -108.13 -106.918 -106.82 -107.467 -108.102 -106.82 -108.699 -108.102 -109.672 -107.467 -108.102 -108.13 -108.666 -108.102 -109.672 -108.666 -109.211 -104.91 -105.976 -105.408 -107.273 -105.976 -107.171 -107.273 -109.021 -105.408 -107.273 -106.605 -109.282 -107.273 -109.021 -109.282 -110.713 -108.451 -111.779 -110.998 -113.318 -110.998 -113.318 -112.603 -114.916 -111.779 -114.863 -113.318 -115.501 -113.318 -115.501 -114.916 -116.804 -115.501 -118.063 -116.804 -118.659 -107.797 -109.972 -108.699 -110.418 -112.603 -114.916 -112.657 -115.841 -114.916 -116.804 -115.841 -117.519 -116.159 -117.403 -115.675 -118.289 -104.4 -104.795 -104.057 -104.255 -107.442 -108.13 -107.816 -108.389 -107.816 -108.389 -109.168 -109.532 -108.13 -108.666 -108.389 -108.873 -108.389 -108.873 -109.532 -109.795 -95.5466 -95.4801 -96.4538 -97.1021 -95.4801 -96.928 -97.1021 -98.4507 -96.928 -98.5742 -98.4507 -100.056 -106.344 -108.332 -106.793 -108.406 -106.793 -108.406 -106.817 -108.228 -108.332 -108.75 -108.406 -110.004 -108.406 -110.004 -108.228 -109.923 -110.004 -110.699 -109.923 -110.956 -96.4538 -97.1021 -98.4301 -98.5034 -97.2206 -98.4301 -99.9076 -99.43 -98.4301 -98.5034 -99.43 -99.2575 -111.98 -113.448 -112.157 -113.775 -113.448 -114.175 -113.775 -116.043 -101.101 -102.35 -102.803 -103.734 -113.676 -115.671 -114.842 -117.046 -111.912 -114.842 -113.32 -115.482 -113.32 -115.482 -113.739 -116.489 -114.842 -117.046 -115.482 -117.321 -110.98 -113.739 -112.67 -114.839 -113.739 -116.489 -114.839 -117.454 -116.489 -119.036 -117.454 -119.743 -117.454 -119.743 -119.241 -120.826 -119.743 -121.786 -120.826 -122.427 -121.786 -122.683 -122.427 -124.249 -122.683 -125.548 -124.249 -125.486 -116.397 -117.659 -117.252 -120.693 -117.659 -119.617 -120.693 -123.133 -104.893 -104.215 -105.517 -105.286 -104.876 -105.894 -105.012 -107.484 -109.479 -112.018 -111.119 -113.338 -111.436 -112.769 -112.654 -113.029 -112.769 -114.236 -113.029 -114.228 -112.157 -113.775 -114.352 -115.078 -113.775 -116.043 -115.078 -116.762 -136.934 -137.758 -137.993 -138.98 -137.993 -138.98 -139.525 -140.511 -138.98 -140.442 -140.511 -140.958 -139.525 -140.511 -141.021 -140.077 -140.511 -140.958 -140.077 -140.555 -156.843 -156.397 -160.016 -157.409 -116.313 -116.243 -115.875 -116 -116.243 -115.644 -116 -116.227 -127.058 -126.969 -127.966 -128.63 -126.969 -128.566 -128.63 -129.835 -119.815 -119.1 -122.725 -120.637 -124.128 -122.725 -126.193 -124.618 -106.218 -105.983 -106.129 -103.877 -125.552 -125.491 -126.865 -126.735 -125.491 -124.747 -126.735 -126.476 -124.747 -123.547 -126.476 -125.737 -123.547 -122.544 -125.737 -124.214 -126.865 -126.735 -128.306 -128.283 -128.306 -128.283 -128.686 -128.958 -125.737 -124.214 -127.772 -126.212 -127.772 -126.212 -128.739 -127.701 -124.214 -123.797 -126.212 -125.007 -123.797 -122.697 -125.007 -123.791 -126.212 -125.007 -127.701 -126.43 -125.007 -123.791 -126.43 -124.916 -97.1021 -98.4507 -98.5034 -99.1496 -98.4507 -100.056 -99.1496 -100.043 -98.5034 -99.1496 -99.2575 -99.7505 -99.1496 -100.043 -99.7505 -99.6069 -100.056 -100.546 -100.043 -101.085 -100.043 -101.085 -99.6069 -101.006 -105.027 -105.221 -106.343 -106.798 -105.221 -105.66 -106.798 -106.602 -105.931 -106.335 -106.619 -107.875 -106.335 -106.343 -107.875 -109.143 -106.343 -106.798 -109.143 -108.918 -110.121 -111.557 -113.382 -113.993 -104.13 -105.994 -106.639 -109.132 -112.247 -114.175 -112.272 -114.152 -114.175 -115.835 -114.152 -115.847 -115.835 -117.236 -115.847 -117.853 -117.236 -118.343 -117.853 -119.051 -117.853 -119.051 -119.148 -120.428 -137.032 -138.018 -139.163 -140.591 -151.959 -151.987 -152.456 -153.372 -150.474 -148.54 -150.951 -149.636 -150.636 -151.692 -152.997 -153.764 -151.692 -152.868 -153.764 -154.147 -152.868 -154.549 -154.147 -155.67 -126.27 -124.805 -125.533 -124.623 -125.533 -124.623 -125.034 -124.212 -125.034 -124.212 -124.954 -124.384 -124.954 -124.384 -124.947 -124.584 -126.886 -126.002 -128.707 -126.542 -128.707 -126.542 -129.122 -127.315 -126.542 -125.408 -127.315 -125.635 -125.597 -124.562 -125.408 -125.026 -124.562 -124.717 -125.026 -124.429 -125.408 -125.026 -125.635 -125.227 -125.026 -124.429 -125.227 -124.359 -122.184 -124.157 -123.848 -124.146 -123.848 -124.146 -124.717 -124.115 -124.146 -124.076 -124.115 -122.62 -124.947 -124.584 -123.492 -123.183 -124.076 -123.492 -122.62 -121.764 -123.492 -123.183 -121.764 -121.436 -124.717 -124.115 -124.429 -123.327 -124.115 -122.62 -123.327 -122.06 -124.429 -123.327 -124.359 -123.419 -122.62 -121.764 -122.06 -121.047 -121.764 -121.436 -121.047 -119.876 -127.547 -131.083 -127.035 -129.052 -125.539 -127.035 -124.538 -125.907 -127.035 -129.052 -125.907 -127.046 -131.083 -132.949 -129.052 -131.179 -132.949 -134.769 -131.179 -133.212 -129.052 -131.179 -127.046 -129.072 -131.179 -133.212 -129.072 -131.53 -139.694 -140.092 -137.287 -137.878 -137.287 -137.878 -134.637 -135.43 -114.236 -114.373 -114.228 -113.681 -110.73 -111.384 -111.623 -111.782 -111.623 -111.782 -111.89 -112.435 -111.89 -112.435 -110.406 -111.815 -140.442 -140.509 -140.958 -140.388 -140.958 -140.388 -140.555 -140.212 -141.021 -140.077 -141.034 -140.117 -140.077 -140.555 -140.117 -139.768 -141.034 -140.117 -140.092 -139.808 -140.117 -139.768 -139.808 -139.098 -140.555 -140.212 -139.768 -139.527 -116.151 -118.493 -116.157 -117.902 -116.157 -117.902 -116.416 -117.616 -116.416 -117.616 -115.323 -116.104 -115.276 -116.549 -116.077 -116.277 -116.549 -117.472 -116.277 -116.518 -116.077 -116.277 -116.313 -116.243 -116.277 -116.518 -116.243 -115.644 -117.472 -118.925 -116.518 -117.33 -118.925 -120.028 -117.33 -118.494 -117.33 -118.494 -116.073 -117.342 -116.073 -117.342 -116.549 -117.015 -116.227 -116.549 -116.857 -116.816 -116.549 -117.015 -116.816 -116.517 -120.028 -120.288 -118.494 -118.833 -120.288 -120.487 -118.833 -119.04 -118.494 -118.833 -117.342 -117.55 -118.833 -119.04 -117.55 -117.69 -120.487 -121.195 -119.04 -119.527 -121.195 -121.781 -119.527 -119.882 -119.04 -119.527 -117.69 -117.94 -119.527 -119.882 -117.94 -118.068 -117.342 -117.55 -117.015 -116.284 -117.55 -117.69 -116.284 -115.396 -117.015 -116.284 -116.517 -115.294 -117.69 -117.94 -115.396 -115.586 -117.94 -118.068 -115.586 -115.687 -118.068 -117.957 -115.687 -115.681 -117.957 -117.286 -115.681 -115.457 -117.286 -117.774 -115.457 -115.931 -109.075 -110.582 -108.569 -108.948 -122.509 -123.735 -122.094 -122.288 -122.094 -122.288 -121.735 -120.993 -123.735 -124.068 -122.288 -122.914 -124.068 -124.375 -122.914 -123.646 -122.914 -123.646 -121.679 -122.979 -121.679 -122.979 -121.839 -122.449 -120.767 -121.839 -120.925 -121.55 -121.839 -122.449 -121.55 -121.413 -120.925 -121.55 -122.544 -122.374 -121.55 -121.413 -122.374 -121.799 -122.544 -122.374 -124.214 -123.797 -122.374 -121.799 -123.797 -122.697 -121.413 -121.229 -121.799 -121.65 -121.799 -121.65 -122.697 -121.955 -121.65 -121.614 -121.955 -121.648 -122.697 -121.955 -123.791 -122.585 -112.654 -113.029 -112.146 -113.412 -113.029 -114.228 -113.412 -114.198 -112.146 -113.412 -111.622 -113.134 -113.412 -114.198 -113.134 -113.922 -114.228 -113.681 -114.198 -113.991 -114.198 -113.991 -113.922 -114.816 -111.622 -113.134 -111.609 -112.819 -113.134 -113.922 -112.819 -113.762 -111.609 -112.819 -112.169 -112.666 -112.819 -113.762 -112.666 -113.713 -113.922 -114.816 -113.762 -114.4 -113.762 -114.4 -113.713 -113.876 -114.4 -115.02 -113.876 -113.763 -122.306 -121.965 -122.71 -122.428 -129.122 -127.315 