# vtk DataFile Version 3.0
#This file was generated by the deal.II library on 2016/5/13 at 16:44:29
ASCII
DATASET UNSTRUCTURED_GRID

POINTS 76064 double
143750 -68750 0
150000 -68750 0
143750 -62500 0
150000 -62500 0
143750 -62500 0
150000 -62500 0
143750 -56250 0
150000 -56250 0
168750 -31250 0
175000 -31250 0
168750 -25000 0
175000 -25000 0
175000 -37500 0
181250 -37500 0
175000 -31250 0
181250 -31250 0
181250 -37500 0
187500 -37500 0
181250 -31250 0
187500 -31250 0
168750 -56250 0
175000 -56250 0
168750 -50000 0
175000 -50000 0
175000 -56250 0
181250 -56250 0
175000 -50000 0
181250 -50000 0
181250 -56250 0
187500 -56250 0
181250 -50000 0
187500 -50000 0
168750 -50000 0
175000 -50000 0
168750 -43750 0
175000 -43750 0
187500 -37500 0
193750 -37500 0
187500 -31250 0
193750 -31250 0
193750 -37500 0
200000 -37500 0
193750 -31250 0
200000 -31250 0
187500 -87500 0
193750 -87500 0
187500 -81250 0
193750 -81250 0
193750 -87500 0
200000 -87500 0
193750 -81250 0
200000 -81250 0
187500 -81250 0
193750 -81250 0
187500 -75000 0
193750 -75000 0
193750 -81250 0
200000 -81250 0
193750 -75000 0
200000 -75000 0
187500 -62500 0
193750 -62500 0
187500 -56250 0
193750 -56250 0
193750 -62500 0
200000 -62500 0
193750 -56250 0
200000 -56250 0
187500 -56250 0
193750 -56250 0
187500 -50000 0
193750 -50000 0
193750 -56250 0
200000 -56250 0
193750 -50000 0
200000 -50000 0
175000 -50000 0
181250 -50000 0
175000 -43750 0
181250 -43750 0
181250 -50000 0
187500 -50000 0
181250 -43750 0
187500 -43750 0
175000 -43750 0
181250 -43750 0
175000 -37500 0
181250 -37500 0
181250 -43750 0
187500 -43750 0
181250 -37500 0
187500 -37500 0
187500 -50000 0
193750 -50000 0
187500 -43750 0
193750 -43750 0
193750 -50000 0
200000 -50000 0
193750 -43750 0
200000 -43750 0
187500 -43750 0
193750 -43750 0
187500 -37500 0
193750 -37500 0
193750 -43750 0
200000 -43750 0
193750 -37500 0
200000 -37500 0
96875 -43750 0
100000 -43750 0
96875 -40625 0
100000 -40625 0
109375 -84375 0
112500 -84375 0
109375 -81250 0
112500 -81250 0
112500 -68750 0
115625 -68750 0
112500 -65625 0
115625 -65625 0
115625 -68750 0
118750 -68750 0
115625 -65625 0
118750 -65625 0
106250 -50000 0
109375 -50000 0
106250 -46875 0
109375 -46875 0
159375 -18750 0
162500 -18750 0
159375 -15625 0
162500 -15625 0
153125 -9375 0
156250 -9375 0
153125 -6250 0
156250 -6250 0
156250 -12500 0
159375 -12500 0
156250 -9375 0
159375 -9375 0
112500 -46875 0
115625 -46875 0
112500 -43750 0
115625 -43750 0
115625 -43750 0
118750 -43750 0
115625 -40625 0
118750 -40625 0
134375 -46875 0
137500 -46875 0
134375 -43750 0
137500 -43750 0
134375 -43750 0
137500 -43750 0
134375 -40625 0
137500 -40625 0
165625 -12500 0
168750 -12500 0
165625 -9375 0
168750 -9375 0
165625 -9375 0
168750 -9375 0
165625 -6250 0
168750 -6250 0
165625 -6250 0
168750 -6250 0
165625 -3125 0
168750 -3125 0
131250 -71875 0
134375 -71875 0
131250 -68750 0
134375 -68750 0
134375 -68750 0
137500 -68750 0
134375 -65625 0
137500 -65625 0
134375 -65625 0
137500 -65625 0
134375 -62500 0
137500 -62500 0
140625 -71875 0
143750 -71875 0
140625 -68750 0
143750 -68750 0
143750 -71875 0
146875 -71875 0
143750 -68750 0
146875 -68750 0
146875 -71875 0
150000 -71875 0
146875 -68750 0
150000 -68750 0
131250 -81250 0
134375 -81250 0
131250 -78125 0
134375 -78125 0
134375 -81250 0
137500 -81250 0
134375 -78125 0
137500 -78125 0
131250 -78125 0
134375 -78125 0
131250 -75000 0
134375 -75000 0
134375 -78125 0
137500 -78125 0
134375 -75000 0
137500 -75000 0
131250 -62500 0
134375 -62500 0
131250 -59375 0
134375 -59375 0
134375 -62500 0
137500 -62500 0
134375 -59375 0
137500 -59375 0
131250 -59375 0
134375 -59375 0
131250 -56250 0
134375 -56250 0
134375 -59375 0
137500 -59375 0
134375 -56250 0
137500 -56250 0
137500 -81250 0
140625 -81250 0
137500 -78125 0
140625 -78125 0
140625 -81250 0
143750 -81250 0
140625 -78125 0
143750 -78125 0
137500 -78125 0
140625 -78125 0
137500 -75000 0
140625 -75000 0
140625 -78125 0
143750 -78125 0
140625 -75000 0
143750 -75000 0
137500 -56250 0
140625 -56250 0
137500 -53125 0
140625 -53125 0
140625 -56250 0
143750 -56250 0
140625 -53125 0
143750 -53125 0
143750 -56250 0
146875 -56250 0
143750 -53125 0
146875 -53125 0
146875 -56250 0
150000 -56250 0
146875 -53125 0
150000 -53125 0
181250 -100000 0
184375 -100000 0
181250 -96875 0
184375 -96875 0
184375 -100000 0
187500 -100000 0
184375 -96875 0
187500 -96875 0
181250 -96875 0
184375 -96875 0
181250 -93750 0
184375 -93750 0
184375 -96875 0
187500 -96875 0
184375 -93750 0
187500 -93750 0
178125 -93750 0
181250 -93750 0
178125 -90625 0
181250 -90625 0
178125 -90625 0
181250 -90625 0
178125 -87500 0
181250 -87500 0
190625 -100000 0
193750 -100000 0
190625 -96875 0
193750 -96875 0
187500 -96875 0
190625 -96875 0
187500 -93750 0
190625 -93750 0
190625 -96875 0
193750 -96875 0
190625 -93750 0
193750 -93750 0
178125 -87500 0
181250 -87500 0
178125 -84375 0
181250 -84375 0
178125 -84375 0
181250 -84375 0
178125 -81250 0
181250 -81250 0
150000 -71875 0
153125 -71875 0
150000 -68750 0
153125 -68750 0
153125 -71875 0
156250 -71875 0
153125 -68750 0
156250 -68750 0
150000 -68750 0
153125 -68750 0
150000 -65625 0
153125 -65625 0
153125 -68750 0
156250 -68750 0
153125 -65625 0
156250 -65625 0
150000 -65625 0
153125 -65625 0
150000 -62500 0
153125 -62500 0
159375 -68750 0
162500 -68750 0
159375 -65625 0
162500 -65625 0
162500 -71875 0
165625 -71875 0
162500 -68750 0
165625 -68750 0
165625 -71875 0
168750 -71875 0
165625 -68750 0
168750 -68750 0
168750 -75000 0
171875 -75000 0
168750 -71875 0
171875 -71875 0
168750 -71875 0
171875 -71875 0
168750 -68750 0
171875 -68750 0
162500 -68750 0
165625 -68750 0
162500 -65625 0
165625 -65625 0
165625 -68750 0
168750 -68750 0
165625 -65625 0
168750 -65625 0
165625 -65625 0
168750 -65625 0
165625 -62500 0
168750 -62500 0
168750 -65625 0
171875 -65625 0
168750 -62500 0
171875 -62500 0
171875 -65625 0
175000 -65625 0
171875 -62500 0
175000 -62500 0
153125 -31250 0
156250 -31250 0
153125 -28125 0
156250 -28125 0
156250 -31250 0
159375 -31250 0
156250 -28125 0
159375 -28125 0
159375 -31250 0
162500 -31250 0
159375 -28125 0
162500 -28125 0
159375 -28125 0
162500 -28125 0
159375 -25000 0
162500 -25000 0
168750 -12500 0
171875 -12500 0
168750 -9375 0
171875 -9375 0
171875 -12500 0
175000 -12500 0
171875 -9375 0
175000 -9375 0
168750 -9375 0
171875 -9375 0
168750 -6250 0
171875 -6250 0
171875 -9375 0
175000 -9375 0
171875 -6250 0
175000 -6250 0
175000 -25000 0
178125 -25000 0
175000 -21875 0
178125 -21875 0
175000 -21875 0
178125 -21875 0
175000 -18750 0
178125 -18750 0
178125 -21875 0
181250 -21875 0
178125 -18750 0
181250 -18750 0
184375 -25000 0
187500 -25000 0
184375 -21875 0
187500 -21875 0
181250 -21875 0
184375 -21875 0
181250 -18750 0
184375 -18750 0
175000 -18750 0
178125 -18750 0
175000 -15625 0
178125 -15625 0
178125 -18750 0
181250 -18750 0
178125 -15625 0
181250 -15625 0
181250 -18750 0
184375 -18750 0
181250 -15625 0
184375 -15625 0
175000 -9375 0
178125 -9375 0
175000 -6250 0
178125 -6250 0
190625 -9375 0
193750 -9375 0
190625 -6250 0
193750 -6250 0
193750 -9375 0
196875 -9375 0
193750 -6250 0
196875 -6250 0
196875 -9375 0
200000 -9375 0
196875 -6250 0
200000 -6250 0
190625 -6250 0
193750 -6250 0
190625 -3125 0
193750 -3125 0
193750 -6250 0
196875 -6250 0
193750 -3125 0
196875 -3125 0
196875 -6250 0
200000 -6250 0
196875 -3125 0
200000 -3125 0
196875 -3125 0
200000 -3125 0
196875 0 0
200000 0 0
137500 -68750 0
140625 -68750 0
137500 -65625 0
140625 -65625 0
140625 -68750 0
143750 -68750 0
140625 -65625 0
143750 -65625 0
137500 -65625 0
140625 -65625 0
137500 -62500 0
140625 -62500 0
140625 -65625 0
143750 -65625 0
140625 -62500 0
143750 -62500 0
131250 -56250 0
134375 -56250 0
131250 -53125 0
134375 -53125 0
134375 -56250 0
137500 -56250 0
134375 -53125 0
137500 -53125 0
131250 -53125 0
134375 -53125 0
131250 -50000 0
134375 -50000 0
134375 -53125 0
137500 -53125 0
134375 -50000 0
137500 -50000 0
137500 -62500 0
140625 -62500 0
137500 -59375 0
140625 -59375 0
140625 -62500 0
143750 -62500 0
140625 -59375 0
143750 -59375 0
137500 -59375 0
140625 -59375 0
137500 -56250 0
140625 -56250 0
140625 -59375 0
143750 -59375 0
140625 -56250 0
143750 -56250 0
175000 -100000 0
178125 -100000 0
175000 -96875 0
178125 -96875 0
178125 -100000 0
181250 -100000 0
178125 -96875 0
181250 -96875 0
175000 -96875 0
178125 -96875 0
175000 -93750 0
178125 -93750 0
178125 -96875 0
181250 -96875 0
178125 -93750 0
181250 -93750 0
181250 -93750 0
184375 -93750 0
181250 -90625 0
184375 -90625 0
184375 -93750 0
187500 -93750 0
184375 -90625 0
187500 -90625 0
181250 -90625 0
184375 -90625 0
181250 -87500 0
184375 -87500 0
184375 -90625 0
187500 -90625 0
184375 -87500 0
187500 -87500 0
193750 -100000 0
196875 -100000 0
193750 -96875 0
196875 -96875 0
196875 -100000 0
200000 -100000 0
196875 -96875 0
200000 -96875 0
193750 -96875 0
196875 -96875 0
193750 -93750 0
196875 -93750 0
196875 -96875 0
200000 -96875 0
196875 -93750 0
200000 -93750 0
187500 -93750 0
190625 -93750 0
187500 -90625 0
190625 -90625 0
190625 -93750 0
193750 -93750 0
190625 -90625 0
193750 -90625 0
187500 -90625 0
190625 -90625 0
187500 -87500 0
190625 -87500 0
190625 -90625 0
193750 -90625 0
190625 -87500 0
193750 -87500 0
193750 -93750 0
196875 -93750 0
193750 -90625 0
196875 -90625 0
196875 -93750 0
200000 -93750 0
196875 -90625 0
200000 -90625 0
193750 -90625 0
196875 -90625 0
193750 -87500 0
196875 -87500 0
196875 -90625 0
200000 -90625 0
196875 -87500 0
200000 -87500 0
181250 -87500 0
184375 -87500 0
181250 -84375 0
184375 -84375 0
184375 -87500 0
187500 -87500 0
184375 -84375 0
187500 -84375 0
181250 -84375 0
184375 -84375 0
181250 -81250 0
184375 -81250 0
184375 -84375 0
187500 -84375 0
184375 -81250 0
187500 -81250 0
175000 -81250 0
178125 -81250 0
175000 -78125 0
178125 -78125 0
178125 -81250 0
181250 -81250 0
178125 -78125 0
181250 -78125 0
175000 -78125 0
178125 -78125 0
175000 -75000 0
178125 -75000 0
178125 -78125 0
181250 -78125 0
178125 -75000 0
181250 -75000 0
181250 -81250 0
184375 -81250 0
[...]
POINT_DATA 76064
SCALARS velocity double 1
LOOKUP_TABLE default
478.764 472.268 466.704 460.647 466.704 460.647 453.481 449.317 462.87 466.155 460.827 463.249 464.585 467.499 466.155 466.77 467.499 466.963 466.77 468.167 469.936 467.262 463.353 463.705 467.262 469.771 463.705 468.862 469.771 471.482 468.862 470.457 463.353 463.705 459.095 460.116 466.963 469.982 468.167 469.344 469.982 471.557 469.344 474.703 489.727 484.177 488.713 488.223 484.177 486.257 488.223 489.202 488.713 488.223 485.103 487.501 488.223 489.202 487.501 497.934 478.637 478.738 471.482 475.442 478.738 477.972 475.442 474.526 471.482 475.442 470.457 471.844 475.442 474.526 471.844 473.448 463.705 468.862 460.116 466.06 468.862 470.457 466.06 468.685 460.116 466.06 464.585 467.499 466.06 468.685 467.499 466.963 470.457 471.844 468.685 471.26 471.844 473.448 471.26 473.118 468.685 471.26 466.963 469.982 471.26 473.118 469.982 471.557 577.733 565.1 573.004 556.481 613.732 606.207 599.262 605.185 556.616 538.968 544.779 536.241 538.968 524.916 536.241 515.753 547.06 535.375 543.27 525.657 433.184 435.045 423.734 429.442 398.544 408.79 383.676 402.593 415.695 420.319 408.79 416.445 516.23 500.681 517.873 505.326 505.326 494.073 509.766 500.156 454.198 447.825 456.795 452.608 456.795 452.608 462.933 459.147 434.699 444.808 441.839 446.605 441.839 446.605 445.194 445.118 445.194 445.118 445.982 449.896 484.8 480.452 479.334 480.458 480.458 490.634 487.848 481.539 487.848 481.539 487.539 476.044 487.547 484.194 488.388 478.764 484.194 474.46 478.764 475.516 474.46 474.878 475.516 472.268 503.766 493.735 486.443 487.491 493.735 493.468 487.491 483.739 486.443 487.491 479.216 478.635 487.491 483.739 478.635 474.723 489.363 487.539 477.584 476.342 487.539 476.044 476.342 469.642 477.584 476.342 470.685 467.791 476.342 469.642 467.791 467.569 493.468 487.136 483.739 482.114 487.136 485.694 482.114 488.523 483.739 482.114 474.723 472.857 482.114 488.523 472.857 471.155 467.569 464.389 460.541 456.828 464.389 453.481 456.828 452.743 453.481 451.399 452.743 442.33 451.399 449.317 442.33 453.084 455.043 490.591 463.953 488.043 490.591 513.378 488.043 510.705 463.953 488.043 479.569 485.007 488.043 510.705 485.007 498.799 492.9 479.569 499.205 490.614 499.205 490.614 498.409 487.981 528.12 499.243 508.777 495.572 510.705 508.777 498.799 495.161 508.777 495.572 495.161 489.391 498.409 487.981 494.848 481.351 494.848 481.351 477.568 471.206 474.878 470.096 472.268 457.008 470.096 462.796 457.008 446.974 472.268 457.008 466.457 447.843 457.008 446.974 447.843 444.395 466.457 447.843 460.647 447.807 461.787 468.354 464.331 466.882 471.962 476.548 468.354 469.604 476.548 472.786 469.604 464.352 474.39 465.613 472.786 459.71 472.786 459.71 464.352 464.182 468.354 469.604 466.882 468.41 469.604 464.352 468.41 468.94 468.41 468.94 470.736 466.541 468.94 470.418 466.541 466.573 470.418 467.196 466.573 465.435 448.712 446.844 438.616 436.942 446.844 447.501 436.942 443.816 447.501 447.04 443.816 442.683 443.816 442.683 439.386 442.273 444.808 449.71 446.605 447.909 449.71 447.146 447.909 456.512 446.605 447.909 445.118 450.078 447.909 456.512 450.078 457.755 463.249 462.383 467.053 463.344 467.053 463.344 467.189 461.964 463.344 465.106 461.964 459.119 464.89 465.937 461.149 460.16 465.106 461.149 459.119 454.17 467.189 461.964 457.461 450.053 461.964 459.119 450.053 450.688 459.119 454.17 450.688 454.696 456.512 469.133 457.755 463.853 507.459 520.796 510.933 525.965 520.796 527.177 525.965 540.837 527.177 530.429 540.837 553.141 510.933 525.965 517.559 529.287 525.965 540.837 529.287 554.526 540.837 553.141 554.526 576.199 554.526 576.199 588.92 590.832 490.634 488.388 481.539 477.431 488.388 478.764 477.431 472.734 481.539 477.431 476.044 470.659 477.431 472.734 470.659 466.704 470.685 467.791 467.098 462.931 467.791 467.569 462.931 460.541 467.098 462.931 457.95 456.472 462.931 460.541 456.472 448.689 476.044 470.659 469.642 460.815 470.659 466.704 460.815 460.093 469.642 460.815 467.569 464.389 460.815 460.093 464.389 453.481 460.311 457.769 472.577 470.303 457.769 455.043 470.303 463.953 472.577 470.303 484.305 492.9 470.303 463.953 492.9 479.569 479.569 485.007 490.614 493.392 485.007 498.799 493.392 495.082 490.614 493.392 487.981 492.484 493.392 495.082 492.484 489.727 499.243 480.549 495.572 487.163 480.549 469.662 487.163 474.455 495.572 487.163 489.391 486.041 487.163 474.455 486.041 478.559 498.799 495.161 495.082 491.996 495.161 489.391 491.996 484.106 495.082 491.996 489.727 486.952 491.996 484.106 486.952 484.177 489.391 486.041 484.106 483.184 486.041 478.559 483.184 482.955 484.106 483.184 484.177 485.217 483.184 482.955 485.217 486.257 487.981 492.484 481.351 485.328 492.484 489.727 485.328 489.22 481.351 485.328 471.206 480.147 485.328 489.22 480.147 488.713 473.998 477.568 468.402 468.301 477.568 471.206 468.301 467.456 468.402 468.301 463.275 467.626 468.301 467.456 467.626 469.144 471.206 480.147 467.456 481.018 480.147 488.713 481.018 486.908 467.456 481.018 469.144 476.635 481.018 486.908 476.635 485.103 442.273 454.008 442.281 447.3 454.008 460.827 447.3 452.383 442.281 447.3 435.045 441.9 447.3 452.383 441.9 450.058 460.827 462.038 452.383 460.006 462.038 463.249 460.006 467.053 452.383 460.006 450.058 459.557 460.006 467.053 459.557 467.189 435.045 441.9 429.442 439.726 441.9 450.058 439.726 442.471 429.442 439.726 423.908 434.699 439.726 442.471 434.699 444.808 450.058 459.557 442.471 450.424 459.557 467.189 450.424 457.461 442.471 450.424 444.808 449.71 450.424 457.461 449.71 447.146 463.275 467.626 467.915 469.114 467.626 469.144 469.114 465.357 467.915 469.114 465.985 461.829 469.114 465.357 461.829 464.387 469.144 476.635 465.357 466.146 476.635 485.103 466.146 475.408 465.357 466.146 464.387 473.605 466.146 475.408 473.605 477.226 465.985 461.829 467.196 469.451 461.829 464.387 469.451 469.464 467.196 469.451 465.435 470.627 469.451 469.464 470.627 473.847 464.387 473.605 469.464 474.19 473.605 477.226 474.19 477.591 469.464 474.19 473.847 476.416 474.19 477.591 476.416 478.637 446.256 448.078 446.742 447.853 448.078 448.312 447.853 449.665 446.742 447.853 446.844 447.501 447.853 449.665 447.501 447.04 448.312 452.214 449.665 453.077 452.214 453.68 453.077 457.244 449.665 453.077 447.04 454.656 453.077 457.244 454.656 462.87 453.68 459.297 457.244 460.908 459.297 464.585 460.908 465.37 457.244 460.908 462.87 464.512 460.908 465.37 464.512 466.155 447.04 454.656 442.683 454.206 454.656 462.87 454.206 461.849 442.683 454.206 442.273 454.008 454.206 461.849 454.008 460.827 466.155 466.462 464.702 464.56 466.462 466.77 464.56 466.49 464.702 464.56 463.249 462.383 464.56 466.49 462.383 462.492 466.77 467.468 466.49 468.755 467.468 468.167 468.755 473.113 466.49 468.755 462.492 464.89 468.755 473.113 464.89 465.937 465.937 471.209 460.16 466.328 471.209 475.776 466.328 470.858 460.16 466.328 457.213 457.577 466.328 470.858 457.577 464.083 460.647 447.807 454.982 449.885 447.807 454.308 449.885 449.368 454.982 449.885 449.317 448.384 449.885 449.368 448.384 449.26 454.308 467.743 449.368 457.038 467.743 472.872 457.038 463.377 449.368 457.038 449.26 455.017 457.038 463.377 455.017 460.727 449.317 448.384 453.084 450.133 448.384 449.26 450.133 452.464 453.084 450.133 447.609 450.93 450.133 452.464 450.93 449.909 449.26 455.017 452.464 453.997 455.017 460.727 453.997 459.358 452.464 453.997 449.909 451.936 453.997 459.358 451.936 457.364 472.872 470.736 463.377 466.346 470.736 466.541 466.346 467.421 463.377 466.346 460.727 465.49 466.346 467.421 465.49 469.936 466.541 466.573 467.421 467.961 466.573 465.435 467.961 470.323 467.421 467.961 469.936 468.599 467.961 470.323 468.599 467.262 460.727 465.49 459.358 464.257 465.49 469.936 464.257 466.644 459.358 464.257 457.364 458.991 464.257 466.644 458.991 463.353 485.103 486.302 475.408 481.383 486.302 487.501 481.383 481 475.408 481.383 477.226 476.232 481.383 481 476.232 475.766 487.501 492.718 481 483.528 492.718 497.934 483.528 490.048 481 483.528 475.766 477.106 483.528 490.048 477.106 480.841 477.226 476.232 477.591 475.199 476.232 475.766 475.199 476.921 477.591 475.199 478.637 478.688 475.199 476.921 478.688 478.738 475.766 477.106 476.921 480.426 477.106 480.841 480.426 482.192 476.921 480.426 478.738 478.355 480.426 482.192 478.355 477.972 465.435 470.627 470.323 471.433 470.627 473.847 471.433 472.16 470.323 471.433 467.262 468.517 471.433 472.16 468.517 469.771 473.847 476.416 472.16 472.582 476.416 478.637 472.582 475.06 472.16 472.582 469.771 470.627 472.582 475.06 470.627 471.482 447.609 450.93 451.062 452.4 450.93 449.909 452.4 452.337 451.062 452.4 457.375 455.595 452.4 452.337 455.595 456.265 449.909 451.936 452.337 454.348 451.936 457.364 454.348 455.81 452.337 454.348 456.265 455.784 454.348 455.81 455.784 457.328 457.375 455.595 461.602 457.064 455.595 456.265 457.064 454.387 461.602 457.064 469.575 455.143 457.064 454.387 455.143 446.256 456.265 455.784 454.387 453.774 455.784 457.328 453.774 451.673 454.387 453.774 446.256 448.078 453.774 451.673 448.078 448.312 457.364 458.991 455.81 457.612 458.991 463.353 457.612 461.224 455.81 457.612 457.328 462.614 457.612 461.224 462.614 459.095 457.328 462.614 451.673 451.518 462.614 459.095 451.518 455.394 451.673 451.518 448.312 452.214 451.518 455.394 452.214 453.68 459.095 459.605 455.394 458.981 459.605 460.116 458.981 462.35 455.394 458.981 453.68 459.297 458.981 462.35 459.297 464.585 468.167 468.756 473.113 473.172 468.756 469.344 473.172 472.602 473.113 473.172 465.937 471.209 473.172 472.602 471.209 475.776 469.344 472.024 472.602 472.482 472.024 474.703 472.482 475.393 472.602 472.482 475.776 480.119 472.482 475.393 480.119 481.793 688.642 663.692 686.398 663.287 618.397 617.182 624.159 611.129 643.04 643.754 669.222 649.896 609.582 593.222 607.281 601.892 593.034 575.509 601.346 579.941 695.659 678.871 693.934 682.751 693.934 682.751 686.024 675.35 490.936 493.065 492.505 490.76 492.505 490.76 487.626 486.664 512.396 510.251 522.288 517.553 512.769 511.99 520.987 522.534 522.288 517.553 528.958 526.25 528.958 526.25 533.088 535.121 526.25 528.538 535.121 535.161 524.408 511.399 524.487 515.119 524.487 515.119 525.622 523.379 543.524 538.09 543.925 539.999 679.893 665.086 676.763 661.664 713.074 675.107 719.963 687.003 700.125 664.752 704.607 675.73 646.068 624.549 638.852 622.337 582.25 574.865 588.581 576.263 630.842 619.309 628.229 610.835 619.309 605.128 610.835 594.946 610.835 594.946 608.616 587.082 636.253 620.448 624.898 606.306 608.616 587.082 598.409 584.214 573.698 561.456 571.452 567.404 571.452 567.404 569.02 570.702 748.623 711.102 738.626 700.736 738.626 700.736 725.1 690.212 619.695 600.936 612.315 583.475 639.855 619.723 630.139 613.866 612.315 583.475 590.482 581.553 689.67 665.481 678.078 652.539 672.54 652.452 665.481 642.238 665.481 642.238 652.539 629.528 710.774 678.078 693.531 660.933 678.078 652.539 660.933 635.281 693.531 660.933 668.568 644.958 660.933 635.281 644.958 623.351 652.539 629.528 635.281 618.049 568.126 562.632 574.005 569.137 585.614 574.005 585.535 574.442 574.005 569.137 574.442 570.716 566.056 567.005 564.197 562.458 564.197 562.458 561.584 560.103 561.584 560.103 558.661 556.088 558.511 558.661 552.242 554.436 474.412 482.995 471.806 479.483 573.859 567.475 566.073 557.621 541.411 523.367 513.22 495.135 523.367 515.617 495.135 479.138 569.535 562.927 567.954 557.643 556.961 548.011 542.578 531.746 397.902 397.909 361.554 365.596 554.313 543.925 544.027 542.084 182.294 217.702 177.31 213.272 217.702 253.444 213.272 249.032 253.444 286.287 249.032 282.596 213.272 249.032 209.735 246.401 249.032 282.596 246.401 279.572 418.07 445.408 396.979 426.175 396.979 426.175 378.186 405.193 426.175 451.301 405.193 440.031 405.193 440.031 387.239 421.108 286.287 319.539 282.596 316.529 319.539 353.959 316.529 350.033 353.959 387.343 350.033 383.031 387.343 420.432 383.031 416.605 282.596 316.529 279.572 312.023 316.529 350.033 312.023 347.309 312.023 347.309 303.181 337.71 350.033 383.031 347.309 381.585 383.031 416.605 381.585 411.233 459.758 496.508 453.39 490.39 420.432 453.39 416.605 450.077 453.39 490.39 450.077 482.418 416.605 450.077 411.233 445.004 450.077 482.418 445.004 477.661 411.233 445.004 400.124 437.147 482.418 511.718 477.661 509.239 456.455 489.993 452.088 487.906 417.725 452.088 414.983 450.99 452.088 487.906 450.99 482.371 252.311 291.866 252.689 293.081 291.866 331.402 293.081 332.481 331.402 371.685 332.481 365.766 455.798 484.557 451.126 489.416 442.492 476.709 440.33 469.112 529.285 537.196 539.976 551.074 541.038 539.976 543.884 555.339 543.884 555.339 550.848 558.085 539.976 551.074 555.339 557.474 551.074 555.389 557.474 557.056 557.056 560.803 557.735 566.515 550.848 558.085 551.356 562.111 558.085 562.574 562.111 562.752 562.111 562.752 559.574 562.086 562.752 560.657 562.086 570.73 559.574 562.086 552.307 560.778 562.086 570.73 560.778 566.052 557.735 566.515 560.657 572.644 566.515 569.051 572.644 573.109 560.657 572.644 570.73 570.258 573.109 570.934 572.383 574.366 570.258 572.383 569.371 584.443 566.052 569.371 561.802 578.53 569.371 584.443 578.53 594.474 598.821 609.356 600.887 609.584 484.557 519.617 489.416 521.344 563.056 579.006 567.686 588.552 567.686 588.552 565.284 592.034 579.006 592.201 588.552 597.701 592.201 604.18 597.701 612.547 0 22.823 0 30.0815 0 30.0815 0 24.7903 0 24.7903 0 23.212 24.7903 45.6606 23.212 50.8867 0 23.212 0 24.4547 23.212 50.8867 24.4547 53.4141 728.799 736.169 746.451 755.809 573.065 554.686 573.257 557.414 554.686 538.154 557.414 542.555 573.257 557.414 572.175 557.56 557.414 542.555 557.56 548.359 516.914 500.679 524.694 507.366 488.143 474.553 492.035 480.052 500.679 492.035 507.366 493.394 492.035 480.052 493.394 485.108 524.694 507.366 531.499 515.69 531.499 515.69 535.808 521.772 507.366 493.394 515.69 498.338 515.69 498.338 521.772 508.575 498.338 488.973 508.575 493.641 474.553 463.661 480.052 466.422 480.052 466.422 485.108 472.859 485.108 472.859 488.973 474.943 488.973 474.943 493.641 477.192 541.724 535.808 548.525 535.475 535.808 521.772 535.475 525.164 548.525 535.475 549.126 537.923 535.475 525.164 537.923 518.493 521.772 508.575 525.164 511.545 508.575 493.641 511.545 496.512 537.923 518.493 528.772 512.511 528.772 512.511 530.66 519.196 493.641 477.192 496.512 480.742 496.512 480.742 496.108 486.378 494.019 483.076 504.061 479.315 561.456 551.135 567.404 556.587 551.135 545.692 556.587 552.978 567.404 556.587 570.702 563.713 570.702 563.713 572.811 570.931 570.931 565.424 568.295 566.394 534.16 522.65 542.871 528.781 504.061 479.315 502.273 486.658 502.273 486.658 504.882 492.571 504.882 492.571 511.4 493.324 511.4 493.324 513.427 494.427 545.692 542.871 552.978 545.924 542.871 528.781 545.924 532.171 552.978 545.924 564.355 549.128 545.924 532.171 549.128 534.525 532.171 520.014 534.525 520.389 564.355 549.128 565.424 553.703 549.128 534.525 553.703 541.652 565.424 553.703 566.394 560.692 553.703 541.652 560.692 547.093 534.525 520.389 541.652 528.816 541.652 528.816 547.093 536.542 586.093 588.793 588.432 583.237 560.692 547.093 561.481 551.845 562.632 561.481 569.137 564.487 547.093 536.542 551.845 533.763 533.763 524.408 527.331 524.487 569.137 564.487 570.716 563.214 539.914 527.331 539.22 531.668 527.331 524.487 531.668 525.622 539.22 531.668 546.091 536.225 567.005 560.494 562.458 555.464 562.458 555.464 560.103 550.856 555.464 543.516 550.856 543.279 536.225 534.193 534.597 535.225 543.516 534.597 543.279 535.49 534.597 535.225 535.49 530.615 560.103 550.856 556.088 547.885 582.571 584.826 586.464 588.258 586.464 588.258 587.12 587.159 580.064 583.648 578.48 578.286 583.648 584.25 578.286 579.854 511.08 525.428 508.807 522.777 525.428 536.935 522.777 535.792 563.002 569.136 567.991 575.063 564.178 564.48 567.372 569.554 564.48 566.982 569.554 566.961 566.982 572.251 566.961 567.484 566.961 567.484 569.683 565.347 567.484 564.942 565.347 557.362 564.942 565.527 557.362 564.87 565.527 572.826 564.87 574.576 572.826 579.55 574.576 582.927 579.286 585.706 583.097 589.687 579.55 583.097 582.927 589.98 583.097 589.687 589.98 595.55 589.687 592.861 595.55 598.879 592.861 595.095 598.879 603.739 595.095 596.709 603.739 607.56 598.879 603.739 606.704 613.682 603.739 607.56 613.682 622.097 607.56 604.91 622.097 634.016 613.682 622.097 620.701 633.47 622.097 634.016 633.47 651.114 620.701 633.47 633.221 642.489 633.47 651.114 642.489 652.351 530.648 537.316 518.642 535.634 518.642 535.634 511.138 522.168 484.161 492.262 485.963 499.171 747.512 743.333 753.027 750.881 764.102 764.555 770.154 776.005 764.555 764.364 776.005 778.795 492.262 508.807 499.171 513.732 508.807 522.777 513.732 524.021 522.777 535.792 524.021 534.97 524.021 534.97 528.112 538.663 781.395 791.273 785.616 799.861 517.207 534.637 518.06 532.874 559.437 572.122 555.465 569.194 791.273 803.337 799.861 811.604 806.983 821.548 812.987 831.09 569.194 576.769 567.143 578.151 576.769 583.564 578.151 592.983 578.151 592.983 580.035 594.517 638.389 652.807 646.145 663.694 652.807 673.591 663.694 677.351 621.049 639.942 627.068 653.431 666.428 676.436 672.082 684.005 655.142 664.162 647.742 671.397 421.452 411.187 426.181 421.887 411.187 409.803 421.887 418.559 426.181 421.887 438.801 432.292 438.801 432.292 449.163 444.111 421.887 418.559 432.292 429.624 418.559 416.313 429.624 430.064 432.292 429.624 444.111 437.733 429.624 430.064 437.733 436.485 400.069 401.466 420.192 411.441 444.111 437.733 452.652 452.157 437.733 436.485 452.157 436.702 452.157 436.702 450.533 451.129 450.533 451.129 451.613 451.093 448.309 451.613 466.529 466.984 451.613 451.093 466.984 464.13 436.702 429.218 451.129 453.129 429.218 427.337 453.129 449.169 427.337 426.403 449.169 442.361 451.093 451.217 464.13 461.774 449.169 442.361 459.082 454.252 459.082 454.252 472.327 467.793 684.005 703.48 690.266 714.569 703.48 726.41 714.569 735.803 464.778 469.965 484.289 475.751 466.984 464.13 475.992 471.533 475.992 471.533 474.641 476.983 690.266 714.569 702.203 721.224 714.569 735.803 721.224 738.366 464.13 461.774 471.533 460.237 471.533 460.237 476.983 472.754 460.237 467.5 472.754 459.745 472.327 467.793 467.5 484.304 467.793 470.012 484.304 482.524 475.355 485.8 480.508 486.396 475.65 484.244 493.069 489.985 484.244 484.221 489.985 494.247 484.221 484.641 494.247 496.29 476.827 481.828 494.184 492.676 494.184 492.676 500.219 510.529 484.641 480.769 496.29 497.164 480.769 494.937 497.164 512.322 483.056 500.219 494.937 512.441 500.219 510.529 512.441 528.166 494.937 512.441 512.322 523.466 512.441 528.166 523.466 533.263 489.691 493.069 493.065 498.189 489.985 494.247 496.444 501.893 494.247 496.29 501.893 502.45 501.893 502.45 504.73 510.483 496.29 497.164 502.45 510.948 497.164 512.322 510.948 521.166 502.45 510.948 510.483 513.158 523.466 533.263 529.127 534.638 537.351 552.136 549.164 563.139 522.811 537.473 520.962 538.396 537.473 549.164 538.396 555.41 549.164 563.139 555.41 561.033 563.139 569.709 561.033 569.191 492.839 499.118 497.671 503.437 499.118 507.612 503.437 511.299 497.671 503.437 504.893 509.586 503.437 511.299 509.586 516.512 382.998 389.143 394.185 394.78 389.143 391.602 394.78 397.845 391.602 395.268 397.845 400.383 391.137 400.242 398.169 411.362 395.268 398.373 400.383 402.796 398.373 406.206 402.796 415.66 406.206 418.194 415.66 430.319 411.918 421.802 427.083 431.715 421.802 430.654 431.715 444.22 402.796 415.66 411.469 430.411 415.66 430.319 430.411 439.367 430.654 442.122 444.22 453.36 438.307 443.13 449.795 455.857 443.13 452.43 455.857 468.636 452.43 464.201 468.636 479.567 464.201 467.141 479.567 479.712 467.141 475.274 479.712 473.078 427.083 431.715 446.506 440.811 446.506 440.811 457.525 455.995 457.525 455.995 468.619 466.05 455.995 459.536 466.05 463.091 468.619 466.05 475.771 475.874 466.05 463.091 475.874 470.076 453.36 455.012 454.685 461.519 454.685 461.519 459.323 467.31 455.012 457.615 461.519 466.294 461.519 466.294 467.31 472.493 45