# vtk DataFile Version 3.0
#This file was generated by the deal.II library on 2016/5/13 at 16:44:23
ASCII
DATASET UNSTRUCTURED_GRID

POINTS 52508 double
187500 -87500 0
200000 -87500 0
187500 -75000 0
200000 -75000 0
187500 -62500 0
200000 -62500 0
187500 -50000 0
200000 -50000 0
175000 -50000 0
187500 -50000 0
175000 -37500 0
187500 -37500 0
187500 -50000 0
200000 -50000 0
187500 -37500 0
200000 -37500 0
131250 -81250 0
137500 -81250 0
131250 -75000 0
137500 -75000 0
137500 -81250 0
143750 -81250 0
137500 -75000 0
143750 -75000 0
168750 -12500 0
175000 -12500 0
168750 -6250 0
175000 -6250 0
137500 -68750 0
143750 -68750 0
137500 -62500 0
143750 -62500 0
131250 -56250 0
137500 -56250 0
131250 -50000 0
137500 -50000 0
137500 -62500 0
143750 -62500 0
137500 -56250 0
143750 -56250 0
175000 -100000 0
181250 -100000 0
175000 -93750 0
181250 -93750 0
181250 -93750 0
187500 -93750 0
181250 -87500 0
187500 -87500 0
193750 -100000 0
200000 -100000 0
193750 -93750 0
200000 -93750 0
187500 -93750 0
193750 -93750 0
187500 -87500 0
193750 -87500 0
193750 -93750 0
200000 -93750 0
193750 -87500 0
200000 -87500 0
181250 -87500 0
187500 -87500 0
181250 -81250 0
187500 -81250 0
175000 -81250 0
181250 -81250 0
175000 -75000 0
181250 -75000 0
181250 -81250 0
187500 -81250 0
181250 -75000 0
187500 -75000 0
162500 -25000 0
168750 -25000 0
162500 -18750 0
168750 -18750 0
168750 -25000 0
175000 -25000 0
168750 -18750 0
175000 -18750 0
162500 -18750 0
168750 -18750 0
162500 -12500 0
168750 -12500 0
168750 -18750 0
175000 -18750 0
168750 -12500 0
175000 -12500 0
175000 -75000 0
181250 -75000 0
175000 -68750 0
181250 -68750 0
181250 -75000 0
187500 -75000 0
181250 -68750 0
187500 -68750 0
175000 -68750 0
181250 -68750 0
175000 -62500 0
181250 -62500 0
181250 -68750 0
187500 -68750 0
181250 -62500 0
187500 -62500 0
156250 -37500 0
162500 -37500 0
156250 -31250 0
162500 -31250 0
162500 -37500 0
168750 -37500 0
162500 -31250 0
168750 -31250 0
168750 -37500 0
175000 -37500 0
168750 -31250 0
175000 -31250 0
162500 -31250 0
168750 -31250 0
162500 -25000 0
168750 -25000 0
175000 -37500 0
181250 -37500 0
175000 -31250 0
181250 -31250 0
181250 -37500 0
187500 -37500 0
181250 -31250 0
187500 -31250 0
175000 -31250 0
181250 -31250 0
175000 -25000 0
181250 -25000 0
181250 -31250 0
187500 -31250 0
181250 -25000 0
187500 -25000 0
187500 -25000 0
193750 -25000 0
187500 -18750 0
193750 -18750 0
150000 -62500 0
156250 -62500 0
150000 -56250 0
156250 -56250 0
156250 -62500 0
162500 -62500 0
156250 -56250 0
162500 -56250 0
150000 -56250 0
156250 -56250 0
150000 -50000 0
156250 -50000 0
156250 -56250 0
162500 -56250 0
156250 -50000 0
162500 -50000 0
162500 -62500 0
168750 -62500 0
162500 -56250 0
168750 -56250 0
168750 -62500 0
175000 -62500 0
168750 -56250 0
175000 -56250 0
162500 -56250 0
168750 -56250 0
162500 -50000 0
168750 -50000 0
168750 -56250 0
175000 -56250 0
168750 -50000 0
175000 -50000 0
187500 -75000 0
193750 -75000 0
187500 -68750 0
193750 -68750 0
193750 -75000 0
200000 -75000 0
193750 -68750 0
200000 -68750 0
187500 -68750 0
193750 -68750 0
187500 -62500 0
193750 -62500 0
193750 -68750 0
200000 -68750 0
193750 -62500 0
200000 -62500 0
175000 -62500 0
181250 -62500 0
175000 -56250 0
181250 -56250 0
181250 -62500 0
187500 -62500 0
181250 -56250 0
187500 -56250 0
175000 -56250 0
181250 -56250 0
175000 -50000 0
181250 -50000 0
181250 -56250 0
187500 -56250 0
181250 -50000 0
187500 -50000 0
150000 -50000 0
156250 -50000 0
150000 -43750 0
156250 -43750 0
156250 -50000 0
162500 -50000 0
156250 -43750 0
162500 -43750 0
150000 -43750 0
156250 -43750 0
150000 -37500 0
156250 -37500 0
156250 -43750 0
162500 -43750 0
156250 -37500 0
162500 -37500 0
162500 -50000 0
168750 -50000 0
162500 -43750 0
168750 -43750 0
168750 -50000 0
175000 -50000 0
168750 -43750 0
175000 -43750 0
162500 -43750 0
168750 -43750 0
162500 -37500 0
168750 -37500 0
168750 -43750 0
175000 -43750 0
168750 -37500 0
175000 -37500 0
187500 -37500 0
193750 -37500 0
187500 -31250 0
193750 -31250 0
193750 -37500 0
200000 -37500 0
193750 -31250 0
200000 -31250 0
187500 -31250 0
193750 -31250 0
187500 -25000 0
193750 -25000 0
193750 -31250 0
200000 -31250 0
193750 -25000 0
200000 -25000 0
0 -100000 0
3125 -100000 0
0 -96875 0
3125 -96875 0
0 -93750 0
3125 -93750 0
0 -90625 0
3125 -90625 0
12500 -100000 0
15625 -100000 0
12500 -96875 0
15625 -96875 0
15625 -100000 0
18750 -100000 0
15625 -96875 0
18750 -96875 0
15625 -93750 0
18750 -93750 0
15625 -90625 0
18750 -90625 0
40625 -78125 0
43750 -78125 0
40625 -75000 0
43750 -75000 0
43750 -78125 0
46875 -78125 0
43750 -75000 0
46875 -75000 0
40625 -75000 0
43750 -75000 0
40625 -71875 0
43750 -71875 0
43750 -75000 0
46875 -75000 0
43750 -71875 0
46875 -71875 0
40625 -65625 0
43750 -65625 0
40625 -62500 0
43750 -62500 0
43750 -65625 0
46875 -65625 0
43750 -62500 0
46875 -62500 0
53125 -100000 0
56250 -100000 0
53125 -96875 0
56250 -96875 0
81250 -100000 0
84375 -100000 0
81250 -96875 0
84375 -96875 0
81250 -84375 0
84375 -84375 0
81250 -81250 0
84375 -81250 0
84375 -84375 0
87500 -84375 0
84375 -81250 0
87500 -81250 0
78125 -81250 0
81250 -81250 0
78125 -78125 0
81250 -78125 0
81250 -81250 0
84375 -81250 0
81250 -78125 0
84375 -78125 0
106250 -81250 0
109375 -81250 0
106250 -78125 0
109375 -78125 0
131250 -100000 0
134375 -100000 0
131250 -96875 0
134375 -96875 0
131250 -96875 0
134375 -96875 0
131250 -93750 0
134375 -93750 0
140625 -100000 0
143750 -100000 0
140625 -96875 0
143750 -96875 0
140625 -96875 0
143750 -96875 0
140625 -93750 0
143750 -93750 0
143750 -100000 0
146875 -100000 0
143750 -96875 0
146875 -96875 0
143750 -96875 0
146875 -96875 0
143750 -93750 0
146875 -93750 0
140625 -93750 0
143750 -93750 0
140625 -90625 0
143750 -90625 0
140625 -90625 0
143750 -90625 0
140625 -87500 0
143750 -87500 0
143750 -93750 0
146875 -93750 0
143750 -90625 0
146875 -90625 0
143750 -90625 0
146875 -90625 0
143750 -87500 0
146875 -87500 0
146875 -90625 0
150000 -90625 0
146875 -87500 0
150000 -87500 0
134375 -87500 0
137500 -87500 0
134375 -84375 0
137500 -84375 0
131250 -84375 0
134375 -84375 0
131250 -81250 0
134375 -81250 0
134375 -84375 0
137500 -84375 0
134375 -81250 0
137500 -81250 0
128125 -81250 0
131250 -81250 0
128125 -78125 0
131250 -78125 0
128125 -78125 0
131250 -78125 0
128125 -75000 0
131250 -75000 0
93750 -56250 0
96875 -56250 0
93750 -53125 0
96875 -53125 0
96875 -56250 0
100000 -56250 0
96875 -53125 0
100000 -53125 0
93750 -53125 0
96875 -53125 0
93750 -50000 0
96875 -50000 0
96875 -53125 0
100000 -53125 0
96875 -50000 0
100000 -50000 0
137500 -87500 0
140625 -87500 0
137500 -84375 0
140625 -84375 0
140625 -87500 0
143750 -87500 0
140625 -84375 0
143750 -84375 0
137500 -84375 0
140625 -84375 0
137500 -81250 0
140625 -81250 0
140625 -84375 0
143750 -84375 0
140625 -81250 0
143750 -81250 0
143750 -87500 0
146875 -87500 0
143750 -84375 0
146875 -84375 0
146875 -87500 0
150000 -87500 0
146875 -84375 0
150000 -84375 0
143750 -84375 0
146875 -84375 0
143750 -81250 0
146875 -81250 0
68750 -50000 0
71875 -50000 0
68750 -46875 0
71875 -46875 0
71875 -50000 0
75000 -50000 0
71875 -46875 0
75000 -46875 0
68750 -46875 0
71875 -46875 0
68750 -43750 0
71875 -43750 0
71875 -46875 0
75000 -46875 0
71875 -43750 0
75000 -43750 0
143750 -81250 0
146875 -81250 0
143750 -78125 0
146875 -78125 0
143750 -78125 0
146875 -78125 0
143750 -75000 0
146875 -75000 0
121875 -75000 0
125000 -75000 0
121875 -71875 0
125000 -71875 0
109375 -59375 0
112500 -59375 0
109375 -56250 0
112500 -56250 0
112500 -59375 0
115625 -59375 0
112500 -56250 0
115625 -56250 0
115625 -59375 0
118750 -59375 0
115625 -56250 0
118750 -56250 0
118750 -59375 0
121875 -59375 0
118750 -56250 0
121875 -56250 0
121875 -59375 0
125000 -59375 0
121875 -56250 0
125000 -56250 0
140625 -6250 0
143750 -6250 0
140625 -3125 0
143750 -3125 0
140625 -3125 0
143750 -3125 0
140625 0 0
143750 0 0
143750 -6250 0
146875 -6250 0
143750 -3125 0
146875 -3125 0
143750 -3125 0
146875 -3125 0
143750 0 0
146875 0 0
75000 -50000 0
78125 -50000 0
75000 -46875 0
78125 -46875 0
78125 -50000 0
81250 -50000 0
78125 -46875 0
81250 -46875 0
75000 -46875 0
78125 -46875 0
75000 -43750 0
78125 -43750 0
78125 -46875 0
81250 -46875 0
78125 -43750 0
81250 -43750 0
81250 -50000 0
84375 -50000 0
81250 -46875 0
84375 -46875 0
84375 -50000 0
87500 -50000 0
84375 -46875 0
87500 -46875 0
81250 -46875 0
84375 -46875 0
81250 -43750 0
84375 -43750 0
84375 -46875 0
87500 -46875 0
84375 -43750 0
87500 -43750 0
81250 -43750 0
84375 -43750 0
81250 -40625 0
84375 -40625 0
84375 -43750 0
87500 -43750 0
84375 -40625 0
87500 -40625 0
81250 -40625 0
84375 -40625 0
81250 -37500 0
84375 -37500 0
84375 -40625 0
87500 -40625 0
84375 -37500 0
87500 -37500 0
112500 -100000 0
115625 -100000 0
112500 -96875 0
115625 -96875 0
115625 -100000 0
118750 -100000 0
115625 -96875 0
118750 -96875 0
112500 -96875 0
115625 -96875 0
112500 -93750 0
115625 -93750 0
115625 -96875 0
118750 -96875 0
115625 -93750 0
118750 -93750 0
112500 -93750 0
115625 -93750 0
112500 -90625 0
115625 -90625 0
115625 -93750 0
118750 -93750 0
115625 -90625 0
118750 -90625 0
112500 -90625 0
115625 -90625 0
112500 -87500 0
115625 -87500 0
115625 -90625 0
118750 -90625 0
115625 -87500 0
118750 -87500 0
118750 -93750 0
121875 -93750 0
118750 -90625 0
121875 -90625 0
121875 -93750 0
125000 -93750 0
121875 -90625 0
125000 -90625 0
118750 -90625 0
121875 -90625 0
118750 -87500 0
121875 -87500 0
121875 -90625 0
125000 -90625 0
121875 -87500 0
125000 -87500 0
112500 -87500 0
115625 -87500 0
112500 -84375 0
115625 -84375 0
115625 -87500 0
118750 -87500 0
115625 -84375 0
118750 -84375 0
112500 -84375 0
115625 -84375 0
112500 -81250 0
115625 -81250 0
115625 -84375 0
118750 -84375 0
115625 -81250 0
118750 -81250 0
112500 -81250 0
115625 -81250 0
112500 -78125 0
115625 -78125 0
115625 -81250 0
118750 -81250 0
115625 -78125 0
118750 -78125 0
112500 -78125 0
115625 -78125 0
112500 -75000 0
115625 -75000 0
115625 -78125 0
118750 -78125 0
115625 -75000 0
118750 -75000 0
118750 -81250 0
121875 -81250 0
[...]
POINT_DATA 52508
SCALARS history_field_xz double 1
LOOKUP_TABLE default
3.54824e+06 3.54824e+06 -1.66364e+07 -1.66364e+07 3.02319e+07 3.02319e+07 -5.87466e+06 -5.87466e+06 1.54137e+07 1.54137e+07 -2.5401e+06 -2.5401e+06 6.72914e+06 6.72914e+06 -1.35676e+07 -1.35676e+07 2.54288e+07 2.54288e+07 1.03318e+08 1.03318e+08 179205 179205 5.21864e+07 5.21864e+07 -9.48964e+07 -9.48964e+07 -1.02068e+07 -1.02068e+07 4.26976e+07 4.26976e+07 3.68693e+07 3.68693e+07 3.25607e+07 3.25607e+07 5.29201e+07 5.29201e+07 3.82338e+07 3.82338e+07 7.75387e+07 7.75387e+07 7.10086e+07 7.10086e+07 6.98166e+07 6.98166e+07 7.31594e+07 7.31594e+07 3.96216e+06 3.96216e+06 4.89e+07 4.89e+07 -1.27523e+07 -1.27523e+07 3.65261e+07 3.65261e+07 1.93763e+06 1.93763e+06 1.78636e+06 1.78636e+06 -4.63192e+06 -4.63192e+06 -8.64019e+06 -8.64019e+06 -2.66725e+07 -2.66725e+07 2.36398e+07 2.36398e+07 -4.56797e+06 -4.56797e+06 1.54031e+07 1.54031e+07 -1.83025e+07 -1.83025e+07 -1.1501e+07 -1.1501e+07 -5.47765e+07 -5.47765e+07 -1.65501e+07 -1.65501e+07 -7.17801e+07 -7.17801e+07 -5.33267e+07 -5.33267e+07 -5.87278e+07 -5.87278e+07 -7.53454e+07 -7.53454e+07 -8.5779e+07 -8.5779e+07 -1.48842e+06 -1.48842e+06 5.69111e+07 5.69111e+07 -1.94525e+07 -1.94525e+07 3.75458e+07 3.75458e+07 2.25612e+07 2.25612e+07 -1.09168e+07 -1.09168e+07 1.04295e+07 1.04295e+07 6.5445e+07 6.5445e+07 7.36508e+07 7.36508e+07 3.4513e+07 3.4513e+07 4.58604e+07 4.58604e+07 -3.21489e+07 -3.21489e+07 7.34319e+06 7.34319e+06 1.87249e+07 1.87249e+07 -1.71286e+07 -1.71286e+07 -2.54611e+07 -2.54611e+07 -4.165e+06 -4.165e+06 -1.17368e+07 -1.17368e+07 -4.09736e+06 -4.09736e+06 -1.87851e+07 -1.87851e+07 -8.46793e+06 -8.46793e+06 -5.46519e+07 -5.46519e+07 -1.24721e+07 -1.24721e+07 1.45778e+07 1.45778e+07 -5.0687e+07 -5.0687e+07 -3.61794e+07 -3.61794e+07 5.06858e+07 5.06858e+07 1.30026e+08 1.30026e+08 5.57294e+07 5.57294e+07 1.22819e+08 1.22819e+08 1.40299e+08 1.40299e+08 1.05635e+08 1.05635e+08 5.32672e+07 5.32672e+07 7.71365e+07 7.71365e+07 1.04208e+08 1.04208e+08 4.04811e+07 4.04811e+07 3.62559e+07 3.62559e+07 3.64235e+07 3.64235e+07 3.7173e+07 3.7173e+07 3.61319e+07 3.61319e+07 3.30743e+07 3.30743e+07 3.10563e+07 3.10563e+07 -2.69963e+07 -2.69963e+07 4.4155e+07 4.4155e+07 356199 356199 3.8709e+07 3.8709e+07 2.46988e+07 2.46988e+07 3.95103e+07 3.95103e+07 -1.13475e+07 -1.13475e+07 3.88533e+07 3.88533e+07 -2.02543e+06 -2.02543e+06 3.40987e+07 3.40987e+07 7.28354e+07 7.28354e+07 3.23218e+07 3.23218e+07 3.54704e+07 3.54704e+07 3.52939e+07 3.52939e+07 4.86868e+06 4.86868e+06 -9.28354e+06 -9.28354e+06 8.29738e+07 8.29738e+07 1.05129e+08 1.05129e+08 5.97906e+07 5.97906e+07 7.83422e+07 7.83422e+07 1.13177e+08 1.13177e+08 2.10646e+08 2.10646e+08 1.03985e+08 1.03985e+08 1.06652e+08 1.06652e+08 6.33248e+07 6.33248e+07 5.83431e+07 5.83431e+07 4.89149e+07 4.89149e+07 5.40152e+07 5.40152e+07 4.36207e+07 4.36207e+07 5.35598e+07 5.35598e+07 4.32166e+07 4.32166e+07 1.18855e+07 1.18855e+07 -2.43792e+07 -2.43792e+07 -2.49819e+07 -2.49819e+07 -1.0894e+07 -1.0894e+07 -1.03989e+07 -1.03989e+07 -1.6666e+07 -1.6666e+07 -4.06825e+07 -4.06825e+07 -2.77718e+07 -2.77718e+07 -3.69034e+07 -3.69034e+07 2.04792e+08 2.04792e+08 2.79704e+08 2.79704e+08 2.76897e+08 2.76897e+08 -8.96725e+07 -8.96725e+07 2.15224e+08 2.15224e+08 5.94163e+07 5.94163e+07 2.74312e+08 2.74312e+08 2.32059e+08 2.32059e+08 1.63097e+08 1.63097e+08 3.17065e+08 3.17065e+08 9.18644e+07 9.18644e+07 5.31563e+07 5.31563e+07 1.35844e+08 1.35844e+08 7.83369e+07 7.83369e+07 -1.16128e+07 -1.16128e+07 -1.2688e+07 -1.2688e+07 2.56887e+07 2.56887e+07 2.39861e+08 2.39861e+08 4.69936e+07 4.69936e+07 1.69486e+08 1.69486e+08 1.55664e+06 1.55664e+06 1.81938e+08 1.81938e+08 -2.3907e+08 -2.3907e+08 -2.15078e+08 -2.15078e+08 -2.03621e+08 -2.03621e+08 -1.70566e+08 -1.70566e+08 -2.20437e+07 -2.20437e+07 3.86145e+07 3.86145e+07 -1.27888e+08 -1.27888e+08 -2.09438e+08 -2.09438e+08 -4.50383e+08 -4.50383e+08 -2.2236e+08 -2.2236e+08 4.42237e+07 4.42237e+07 -1.6973e+08 -1.6973e+08 1.63575e+08 1.63575e+08 1.2991e+08 1.2991e+08 1.1361e+08 1.1361e+08 3.23607e+07 3.23607e+07 2.61644e+07 2.61644e+07 7.81544e+07 7.81544e+07 3.36362e+08 3.36362e+08 1.15979e+08 1.15979e+08 1.27017e+08 1.27017e+08 1.01481e+08 1.01481e+08 -8.38397e+07 -8.38397e+07 7.66697e+07 7.66697e+07 7.72012e+07 7.72012e+07 2.87673e+07 2.87673e+07 1.03703e+08 1.03703e+08 1.00147e+07 1.00147e+07 9.30163e+06 9.30163e+06 -1.53195e+08 -1.53195e+08 3.14691e+07 3.14691e+07 1.64737e+08 1.64737e+08 1.55148e+08 1.55148e+08 4.66188e+07 4.66188e+07 2.92572e+08 2.92572e+08 1.00068e+08 1.00068e+08 3.36414e+08 3.36414e+08 -3.00134e+07 -3.00134e+07 2.20797e+08 2.20797e+08 3.5775e+07 3.5775e+07 -3.43365e+07 -3.43365e+07 2.65781e+06 2.65781e+06 2.29682e+08 2.29682e+08 1.11226e+08 1.11226e+08 1.13232e+08 1.13232e+08 4.12398e+07 4.12398e+07 9.49293e+07 9.49293e+07 3.29125e+07 3.29125e+07 2.04154e+08 2.04154e+08 1.41862e+07 1.41862e+07 2.67702e+07 2.67702e+07 1.31287e+08 1.31287e+08 1.61082e+07 1.61082e+07 9.81074e+07 9.81074e+07 8.5359e+07 8.5359e+07 3.54261e+07 3.54261e+07 -1.26419e+08 -1.26419e+08 -5.73006e+06 -5.73006e+06 5.46318e+07 5.46318e+07 3.13912e+07 3.13912e+07 -6.93095e+06 -6.93095e+06 2.48135e+07 2.48135e+07 7.90427e+07 7.90427e+07 -1.24727e+08 -1.24727e+08 1.39124e+08 1.39124e+08 1.62668e+08 1.62668e+08 -1.24727e+08 -1.24727e+08 -6.78355e+07 -6.78355e+07 4.7504e+07 4.7504e+07 -2.25249e+07 -2.25249e+07 4.81221e+07 4.81221e+07 -1.1398e+07 -1.1398e+07 -6.28189e+07 -6.28189e+07 -1.40981e+08 -1.40981e+08 -4.38987e+07 -4.38987e+07 -6.38472e+07 -6.38472e+07 -1.01203e+08 -1.01203e+08 -3.55941e+07 -3.55941e+07 -3.48827e+07 -3.48827e+07 1.50834e+08 1.50834e+08 5.37473e+08 5.37473e+08 3.46158e+08 3.46158e+08 3.87301e+08 3.87301e+08 3.7207e+07 3.7207e+07 3.01834e+08 3.01834e+08 2.07889e+08 2.07889e+08 2.37843e+08 2.37843e+08 2.05016e+08 2.05016e+08 1.79993e+08 1.79993e+08 1.66348e+08 1.66348e+08 -1.4354e+07 -1.4354e+07 1.58052e+08 1.58052e+08 9.97543e+06 9.97543e+06 -2.17906e+08 -2.17906e+08 -2.24331e+08 -2.24331e+08 -6.68084e+08 -6.68084e+08 -4.44284e+08 -4.44284e+08 -2.62658e+08 -2.62658e+08 -2.64025e+08 -2.64025e+08 7.95787e+07 7.95787e+07 -1.12362e+07 -1.12362e+07 2.79757e+07 2.79757e+07 4.77682e+06 4.77682e+06 6.48162e+06 6.48162e+06 3.13608e+07 3.13608e+07 1.88087e+07 1.88087e+07 1.17608e+07 1.17608e+07 1.53418e+08 1.53418e+08 3.17495e+06 3.17495e+06 -5.14019e+07 -5.14019e+07 -5.48222e+07 -5.48222e+07 -1.49174e+08 -1.49174e+08 -5.70813e+07 -5.70813e+07 -7.59377e+07 -7.59377e+07 -1.54125e+08 -1.54125e+08 -3.08928e+08 -3.08928e+08 -7.31458e+07 -7.31458e+07 -2.37477e+08 -2.37477e+08 -3.06136e+08 -3.06136e+08 -1.92013e+08 -1.92013e+08 -2.42496e+08 -2.42496e+08 -2.42696e+08 -2.42696e+08 -1.95135e+08 -1.95135e+08 -3.10861e+07 -3.10861e+07 8.70354e+07 8.70354e+07 -2.62203e+07 -2.62203e+07 -2.45378e+08 -2.45378e+08 -7.2885e+07 -7.2885e+07 -3.25217e+07 -3.25217e+07 2.65764e+07 2.65764e+07 -7.91864e+07 -7.91864e+07 1.28727e+08 1.28727e+08 2.65764e+07 2.65764e+07 1.36663e+08 1.36663e+08 1.28727e+08 1.28727e+08 1.56063e+08 1.56063e+08 1.33627e+08 1.33627e+08 2.0202e+08 2.0202e+08 1.54685e+08 1.54685e+08 7.51671e+07 7.51671e+07 3.44669e+08 3.44669e+08 2.20286e+08 2.20286e+08 1.89365e+08 1.89365e+08 2.02098e+08 2.02098e+08 2.16731e+08 2.16731e+08 2.41046e+08 2.41046e+08 1.9984e+08 1.9984e+08 2.93874e+08 2.93874e+08 2.00131e+08 2.00131e+08 1.49639e+08 1.49639e+08 7.39357e+07 7.39357e+07 1.34878e+08 1.34878e+08 1.52322e+08 1.52322e+08 1.57277e+08 1.57277e+08 1.36264e+08 1.36264e+08 2.52374e+08 2.52374e+08 1.58672e+08 1.58672e+08 2.36135e+08 2.36135e+08 2.53769e+08 2.53769e+08 2.35901e+08 2.35901e+08 -2.51219e+08 -2.51219e+08 -3.83719e+08 -3.83719e+08 -2.23551e+08 -2.23551e+08 -1.06095e+08 -1.06095e+08 2.22514e+08 2.22514e+08 4.94778e+07 4.94778e+07 9.82075e+06 9.82075e+06 1.44568e+08 1.44568e+08 1.47558e+08 1.47558e+08 1.65375e+08 1.65375e+08 2.45581e+08 2.45581e+08 2.17406e+08 2.17406e+08 8.52725e+07 8.52725e+07 -9.3309e+07 -9.3309e+07 -8.41047e+07 -8.41047e+07 -8.27323e+07 -8.27323e+07 -1.46142e+08 -1.46142e+08 -2.67347e+08 -2.67347e+08 -1.34867e+08 -1.34867e+08 -1.86837e+08 -1.86837e+08 -1.82008e+08 -1.82008e+08 -1.60487e+08 -1.60487e+08 -4.02508e+08 -4.02508e+08 -1.10303e+08 -1.10303e+08 -1.12668e+08 -1.12668e+08 -9.93372e+07 -9.93372e+07 -6.802e+07 -6.802e+07 3.6741e+07 3.6741e+07 3.43778e+08 3.43778e+08 1.9776e+08 1.9776e+08 4.6423e+07 4.6423e+07 1.42201e+08 1.42201e+08 2.6086e+08 2.6086e+08 1.52747e+08 1.52747e+08 2.01304e+08 2.01304e+08 2.15374e+08 2.15374e+08 2.37639e+07 2.37639e+07 -7.25657e+07 -7.25657e+07 -2.07954e+08 -2.07954e+08 -9.18267e+07 -9.18267e+07 -3.80152e+07 -3.80152e+07 -1.56589e+08 -1.56589e+08 -4.85491e+07 -4.85491e+07 2.63264e+08 2.63264e+08 2.43785e+08 2.43785e+08 4.28055e+07 4.28055e+07 -1.01325e+08 -1.01325e+08 9.5301e+07 9.5301e+07 1.63317e+07 1.63317e+07 -4.51191e+07 -4.51191e+07 4.87258e+07 4.87258e+07 3.21385e+08 3.21385e+08 -1.60924e+08 -1.60924e+08 -1.59308e+08 -1.59308e+08 -1.17632e+08 -1.17632e+08 -2.62444e+08 -2.62444e+08 -1.12408e+08 -1.12408e+08 -3.25824e+08 -3.25824e+08 -2.42482e+08 -2.42482e+08 -1.7745e+08 -1.7745e+08 -2.70576e+08 -2.70576e+08 -1.88009e+08 -1.88009e+08 -2.8007e+08 -2.8007e+08 -8.93743e+07 -8.93743e+07 -3.11269e+08 -3.11269e+08 -2.42869e+08 -2.42869e+08 -2.11167e+08 -2.11167e+08 -2.68957e+08 -2.68957e+08 8.89611e+07 8.89611e+07 1.25024e+07 1.25024e+07 -8.88944e+06 -8.88944e+06 -8.27154e+07 -8.27154e+07 5.82268e+07 5.82268e+07 -1.63471e+08 -1.63471e+08 -3.81498e+07 -3.81498e+07 -1.29396e+08 -1.29396e+08 -1.29668e+08 -1.29668e+08 -1.43342e+08 -1.43342e+08 -3.92848e+08 -3.92848e+08 -1.88384e+08 -1.88384e+08 -1.35295e+08 -1.35295e+08 -1.11978e+08 -1.11978e+08 -1.51091e+08 -1.51091e+08 -1.27665e+08 -1.27665e+08 -1.78151e+08 -1.78151e+08 -2.2884e+08 -2.2884e+08 -1.85417e+08 -1.85417e+08 -1.65765e+08 -1.65765e+08 -2.06622e+08 -2.06622e+08 -1.39926e+08 -1.39926e+08 -2.17484e+08 -2.17484e+08 -2.02596e+08 -2.02596e+08 -2.39252e+08 -2.39252e+08 -1.86959e+08 -1.86959e+08 -2.59703e+08 -2.59703e+08 -2.31177e+08 -2.31177e+08 -1.76136e+08 -1.76136e+08 -2.12918e+08 -2.12918e+08 -8.93109e+07 -8.93109e+07 -1.95628e+08 -1.95628e+08 2.98416e+08 2.98416e+08 1.89857e+08 1.89857e+08 2.01646e+08 2.01646e+08 9.84004e+07 9.84004e+07 2.05585e+08 2.05585e+08 1.16862e+08 1.16862e+08 9.11427e+07 9.11427e+07 9.08844e+07 9.08844e+07 1.3968e+08 1.3968e+08 6.27384e+07 6.27384e+07 6.5108e+06 6.5108e+06 4.47821e+07 4.47821e+07 4.18296e+07 4.18296e+07 4.75188e+06 4.75188e+06 2.82388e+07 2.82388e+07 -3.19441e+07 -3.19441e+07 1.17796e+08 1.17796e+08 -3.73335e+07 -3.73335e+07 1.16946e+08 1.16946e+08 1.81606e+08 1.81606e+08 1.00613e+07 1.00613e+07 1.87771e+08 1.87771e+08 1.97716e+08 1.97716e+08 -7.09069e+06 -7.09069e+06 2.42956e+08 2.42956e+08 1.30315e+08 1.30315e+08 9.27466e+07 9.27466e+07 4.40723e+07 4.40723e+07 2.67576e+07 2.67576e+07 3.11167e+07 3.11167e+07 1.33438e+08 1.33438e+08 1.70747e+08 1.70747e+08 1.28829e+08 1.28829e+08 1.36037e+08 1.36037e+08 -4.30259e+07 -4.30259e+07 2.32261e+07 2.32261e+07 1.36037e+08 1.36037e+08 -9.20085e+07 -9.20085e+07 2.32261e+07 2.32261e+07 8.6416e+07 8.6416e+07 -2.33407e+07 -2.33407e+07 6.05317e+07 6.05317e+07 5.67003e+07 5.67003e+07 1.21087e+08 1.21087e+08 2.52656e+07 2.52656e+07 2.59502e+07 2.59502e+07 1.09162e+08 1.09162e+08 1.33915e+08 1.33915e+08 2.31192e+06 2.31192e+06 -2.74116e+07 -2.74116e+07 1.7539e+08 1.7539e+08 -5.36487e+07 -5.36487e+07 -2.04576e+06 -2.04576e+06 -1.64891e+08 -1.64891e+08 -4.06877e+07 -4.06877e+07 -8.37937e+07 -8.37937e+07 1.95344e+08 1.95344e+08 9.56823e+07 9.56823e+07 5.30432e+07 5.30432e+07 1.07326e+08 1.07326e+08 -1.07518e+08 -1.07518e+08 -9.10101e+07 -9.10101e+07 1.33383e+08 1.33383e+08 -5.01612e+07 -5.01612e+07 2.16723e+07 2.16723e+07 -7.68866e+07 -7.68866e+07 5.3172e+07 5.3172e+07 -1.35648e+07 -1.35648e+07 -6.30697e+07 -6.30697e+07 -1.12782e+08 -1.12782e+08 -2.1942e+07 -2.1942e+07 -4.68235e+07 -4.68235e+07 3.8786e+07 3.8786e+07 -1.75041e+07 -1.75041e+07 4.08277e+07 4.08277e+07 2.70801e+07 2.70801e+07 2.36582e+07 2.36582e+07 -1.36201e+07 -1.36201e+07 3.48879e+07 3.48879e+07 8.322e+07 8.322e+07 -4.64146e+08 -4.64146e+08 -5.38728e+08 -5.38728e+08 -1.3192e+08 -1.3192e+08 -2.13101e+08 -2.13101e+08 -4.75746e+08 -4.75746e+08 -3.89918e+08 -3.89918e+08 -2.13101e+08 -2.13101e+08 -1.58174e+08 -1.58174e+08 1.13667e+08 1.13667e+08 -1.92463e+07 -1.92463e+07 -7.15891e+07 -7.15891e+07 -1.96178e+08 -1.96178e+08 -1.07105e+08 -1.07105e+08 -3.80012e+08 -3.80012e+08 -2.2232e+08 -2.2232e+08 -3.53997e+08 -3.53997e+08 -4.10733e+07 -4.10733e+07 -1.84109e+08 -1.84109e+08 -2.38088e+07 -2.38088e+07 1.01413e+08 1.01413e+08 -4.66556e+07 -4.66556e+07 -3.70431e+08 -3.70431e+08 2.35261e+08 2.35261e+08 6.349e+08 6.349e+08 6.35018e+07 6.35018e+07 3.11173e+08 3.11173e+08 2.03359e+08 2.03359e+08 2.6777e+08 2.6777e+08 3.11173e+08 3.11173e+08 8.00409e+08 8.00409e+08 2.65182e+08 2.65182e+08 2.33094e+08 2.33094e+08 7.6257e+08 7.6257e+08 3.86711e+08 3.86711e+08 1.94989e+08 1.94989e+08 1.00137e+08 1.00137e+08 3.86711e+08 3.86711e+08 -3.68187e+08 -3.68187e+08 1.46809e+08 1.46809e+08 -6.6701e+07 -6.6701e+07 2.08159e+07 2.08159e+07 -1.05493e+08 -1.05493e+08 -3.17598e+07 -3.17598e+07 -5.04142e+07 -5.04142e+07 -1.05493e+08 -1.05493e+08 -1.18459e+08 -1.18459e+08 -6.18835e+07 -6.18835e+07 -6.0977e+07 -6.0977e+07 -3.52445e+07 -3.52445e+07 -7.68427e+07 -7.68427e+07 -3.52085e+07 -3.52085e+07 -4.50776e+06 -4.50776e+06 -7.68427e+07 -7.68427e+07 -2.01407e+07 -2.01407e+07 3.41944e+07 3.41944e+07 -2.12866e+07 -2.12866e+07 -4.01073e+07 -4.01073e+07 -1.08306e+08 -1.08306e+08 -2.79563e+07 -2.79563e+07 -1.15586e+08 -1.15586e+08 -1.89794e+08 -1.89794e+08 -1.28321e+08 -1.28321e+08 -5.94847e+07 -5.94847e+07 -1.77686e+08 -1.77686e+08 7.02415e+07 7.02415e+07 -4.23096e+07 -4.23096e+07 -1.99336e+07 -1.99336e+07 -6.00854e+07 -6.00854e+07 -7.25603e+07 -7.25603e+07 -5.38235e+07 -5.38235e+07 -9.17416e+07 -9.17416e+07 -1.58668e+08 -1.58668e+08 -6.21099e+07 -6.21099e+07 -3.48991e+07 -3.48991e+07 2.34879e+07 2.34879e+07 -5.75193e+06 -5.75193e+06 -5.72616e+07 -5.72616e+07 -5.58159e+07 -5.58159e+07 -5.75193e+06 -5.75193e+06 -1.20673e+07 -1.20673e+07 5.97828e+07 5.97828e+07 -7.00002e+07 -7.00002e+07 5.19351e+06 5.19351e+06 1.21743e+08 1.21743e+08 -6.64802e+07 -6.64802e+07 7.28829e+06 7.28829e+06 -7.39544e+07 -7.39544e+07 -9.34666e+07 -9.34666e+07 -2.0801e+08 -2.0801e+08 9.62598e+07 9.62598e+07 -3.65889e+07 -3.65889e+07 -1.30597e+08 -1.30597e+08 1.90033e+08 1.90033e+08 -3.79486e+06 -3.79486e+06 -1.92111e+08 -1.92111e+08 9.50624e+07 9.50624e+07 1.55903e+07 1.55903e+07 -1.02423e+07 -1.02423e+07 7.98754e+07 7.98754e+07 9.90835e+07 9.90835e+07 1.97198e+06 1.97198e+06 1.00096e+07 1.00096e+07 5.94344e+07 5.94344e+07 -7.45223e+07 -7.45223e+07 -9.91626e+07 -9.91626e+07 -2.40426e+08 -2.40426e+08 -1.27941e+08 -1.27941e+08 -1.18682e+08 -1.18682e+08 -1.29788e+08 -1.29788e+08 -2.71483e+08 -2.71483e+08 -1.77227e+08 -1.77227e+08 -2.72646e+08 -2.72646e+08 -9.2285e+07 -9.2285e+07 -2.32369e+08 -2.32369e+08 -1.98477e+08 -1.98477e+08 -2.07435e+08 -2.07435e+08 -2.28886e+08 -2.28886e+08 -3.49543e+08 -3.49543e+08 -2.05119e+08 -2.05119e+08 -2.67214e+08 -2.67214e+08 -2.87837e+08 -2.87837e+08 -3.43042e+08 -3.43042e+08 -2.92771e+08 -2.92771e+08 -3.37494e+08 -3.37494e+08 -3.70884e+08 -3.70884e+08 -6.58169e+08 -6.58169e+08 -3.57421e+08 -3.57421e+08 -4.23285e+08 -4.23285e+08 -1.83362e+08 -1.83362e+08 -2.73598e+08 -2.73598e+08 -1.18997e+08 -1.18997e+08 -2.00628e+08 -2.00628e+08 -2.97937e+08 -2.97937e+08 -3.50595e+08 -3.50595e+08 -2.37169e+08 -2.37169e+08 -2.54144e+08 -2.54144e+08 1.63853e+08 1.63853e+08 1.02581e+08 1.02581e+08 2.38092e+08 2.38092e+08 1.38383e+08 1.38383e+08 1.28336e+08 1.28336e+08 1.03995e+08 1.03995e+08 1.97232e+08 1.97232e+08 9.69278e+07 9.69278e+07 1.13939e+08 1.13939e+08 1.757e+08 1.757e+08 9.34318e+07 9.34318e+07 1.03059e+08 1.03059e+08 1.757e+08 1.757e+08 2.72454e+08 2.72454e+08 1.02032e+08 1.02032e+08 2.5409e+08 2.5409e+08 1.04119e+08 1.04119e+08 1.11586e+07 1.11586e+07 1.06282e+08 1.06282e+08 1.91353e+08 1.91353e+08 1.11586e+07 1.11586e+07 8.786e+07 8.786e+07 -2.10776e+08 -2.10776e+08 -9.07299e+07 -9.07299e+07 -8.97117e+07 -8.97117e+07 -5.92787e+07 -5.92787e+07 -1.49806e+08 -1.49806e+08 -6.59266e+07 -6.59266e+07 -5.92787e+07 -5.92787e+07 -9.25692e+07 -9.25692e+07 -9.57816e+07 -9.57816e+07 -5.33758e+07 -5.33758e+07 4.25729e+07 4.25729e+07 3.75197e+07 3.75197e+07 4.40876e+07 4.40876e+07 1.04819e+07 1.04819e+07 3.75197e+07 3.75197e+07 8.03215e+07 8.03215e+07 1.26954e+07 1.26954e+07 -827256 -827256 -7.95876e+06 -7.95876e+06 -4.93206e+07 -4.93206e+07 -1.23551e+08 -1.23551e+08 -7.87933e+07 -7.87933e+07 -4.93206e+07 -4.93206e+07 -5.75137e+07 -5.75137e+07 -1.10433e+08 -1.10433e+08 -8.88085e+07 -8.88085e+07 5.3405e+07 5.3405e+07 -2.65759e+07 -2.65759e+07 -2.58168e+07 -2.58168e+07 -3.83788e+07 -3.83788e+07 -2.65759e+07 -2.65759e+07 -1.52124e+08 -1.52124e+08 -1.90425e+07 -1.90425e+07 -2.62995e+07 -2.62995e+07 -5.88655e+07 -5.88655e+07 -1.8606e+07 -1.8606e+07 -5.89475e+07 -5.89475e+07 -2.56039e+08 -2.56039e+08 -1.8606e+07 -1.8606e+07 -6.41235e+06 -6.41235e+06 8.53685e+07 8.53685e+07 1.29814e+07 1.29814e+07 5.96297e+08 5.96297e+08 2.36612e+08 2.36612e+08 -8.79224e+06 -8.79224e+06 1.04509e+08 1.04509e+08 2.36612e+08 2.36612e+08 5.97291e+07 5.97291e+07 1.11618e+08 1.11618e+08 1.9083e+07 1.9083e+07 -2.86293e+07 -2.86293e+07 1.51374e+08 1.51374e+08 2.3447e+08 2.3447e+08 -4.02504e+07 -4.02504e+07 -1.76925e+08 -1.76925e+08 -4.27266e+07 -4.27266e+07 -3.56508e+07 -3.56508e+07 -1.13082e+08 -1.13082e+08 1.02118e+08 1.02118e+08 -8.38116e+07 -8.38116e+07 4.53696e+06 4.53696e+06 -3.39457e+07 -3.39457e+07 -1.11291e+08 -1.11291e+08 -3.28991e+08 -3.28991e+08 -3.62902e+07 -3.62902e+07 -1.44906e+08 -1.44906e+08 -5.2334e+07 -5.2334e+07 -2.17759e+07 -2.17759e+07 -1.18356e+08 -1.18356e+08 -5.20958e+07 -5.20958e+07 -1.5624e+07 -1.5624e+07 1.06863e+08 1.06863e+08 -4.61475e+07 -4.61475e+07 1.61959e+08 1.61959e+08 -2.1117e+08 -2.1117e+08 -1.00511e+08 -1.00511e+08 -1.32483e+08 -1.32483e+08 -8.44968e+07 -8.44968e+07 -1.26001e+08 -1.26001e+08 -1.21838e+08 -1.21838e+08 -7.99911e+07 -7.99911e+07 -7.51889e+07 -7.51889e+07 -7.33793e+07 -7.33793e+07 -5.41612e+07 -5.41612e+07 -7.75992e+07 -7.75992e+07 -1.60711e+07 -1.60711e+07 -5.58854e+07 -5.58854e+07 -8.65626e+06 -8.65626e+06 -5.37645e+06 -5.37645e+06 8.10684e+07 8.10684e+07 -9.2132e+07 -9.2132e+07 -4.80092e+07 -4.80092e+07 -7.3164e+07 -7.3164e+07 -682234 -682234 -7.04039e+07 -7.04039e+07 -1.86507e+08 -1.86507e+08 -3.60224e+06 -3.60224e+06 5.36503e+07 5.36503e+07 -2.43798e+06 -2.43798e+06 4.2556e+07 4.2556e+07 6.97724e+07 6.97724e+07 3.67108e+07 3.67108e+07 3.14522e+07 3.14522e+07 1.69782e+08 1.69782e+08 4.86082e+07 4.86082e+07 4.09165e+07 4.09165e+07 2.56827e+06 2.56827e+06 4.89686e+07 4.89686e+07 4.39508e+07 4.39508e+07 1.12485e+08 1.12485e+08 3.06775e+07 3.06775e+07 1.3362e+08 1.3362e+08 1.07627e+08 1.07627e+08 4.42781e+07 4.42781e+07 1.32051e+08 1.32051e+08 1.13488e+08 1.13488e+08 1.09484e+08 1.09484e+08 2.67617e+07 2.67617e+07 1.1446e+07 1.1446e+07 -3.34843e+07 -3.34843e+07 3.96645e+07 3.96645e+07 7.54688e+07 7.54688e+07 5.28036e+07 5.28036e+07 2.13227e+07 2.13227e+07 -3.22362e+07 -3.22362e+07 1.2846e+07 1.2846e+07 4.17023e+07 4.17023e+07 -4.80222e+06 -4.80222e+06 7.06958e+07 7.06958e+07 4.5625e+07 4.5625e+07 5.33205e+07 5.33205e+07 1.01063e+08 1.01063e+08 1.28774e+08 1.28774e+08 1.52404e+08 1.52404e+08 7.91057e+07 7.91057e+07 1.29238e+08 1.29238e+08 1.49712e+08 1.49712e+08 2.32618e+08 2.32618e+08 -1.82149e+08 -1.82149e+08 -1.80707e+08 -1.80707e+08 -1.74156e+08 -1.74156e+08 -1.55903e+08 -1.55903e+08 -1.64318e+08 -1.64318e+08 -1.29491e+08 -1.29491e+08 -1.50899e+08 -1.50899e+08 -1.08414e+08 -1.08414e+08 -1.24488e+08 -1.24488e+08 -1.44666e+08 -1.44666e+08 -9.36834e+07 -9.36834e+07 -1.00427e+08 -1.00427e+08 -1.30479e+08 -1.30479e+08 -1.65818e+08 -1.65818e+08 -1.01571e+08 -1.01571e+08 -8.11049e+07 -8.11049e+07 -8.13928e+07 -8.13928e+07 -3.26319e+07 -3.26319e+07 -1.32285e+08 -1.32285e+08 4.55636e+07 4.55636e+07 -7.24988e+07 -7.24988e+07 -6.24556e+06 -6.