# vtk DataFile Version 3.0
#This file was generated by the deal.II library on 2016/5/13 at 16:44:17
ASCII
DATASET UNSTRUCTURED_GRID

POINTS 18272 double
162500 -100000 0
175000 -100000 0
162500 -87500 0
175000 -87500 0
162500 -87500 0
175000 -87500 0
162500 -75000 0
175000 -75000 0
112500 -50000 0
125000 -50000 0
112500 -37500 0
125000 -37500 0
125000 -25000 0
137500 -25000 0
125000 -12500 0
137500 -12500 0
125000 -50000 0
137500 -50000 0
125000 -37500 0
137500 -37500 0
137500 -50000 0
150000 -50000 0
137500 -37500 0
150000 -37500 0
162500 -12500 0
175000 -12500 0
162500 0 0
175000 0 0
125000 -75000 0
137500 -75000 0
125000 -62500 0
137500 -62500 0
137500 -75000 0
150000 -75000 0
137500 -62500 0
150000 -62500 0
125000 -62500 0
137500 -62500 0
125000 -50000 0
137500 -50000 0
137500 -62500 0
150000 -62500 0
137500 -50000 0
150000 -50000 0
175000 -100000 0
187500 -100000 0
175000 -87500 0
187500 -87500 0
187500 -100000 0
200000 -100000 0
187500 -87500 0
200000 -87500 0
175000 -87500 0
187500 -87500 0
175000 -75000 0
187500 -75000 0
187500 -87500 0
200000 -87500 0
187500 -75000 0
200000 -75000 0
150000 -75000 0
162500 -75000 0
150000 -62500 0
162500 -62500 0
162500 -75000 0
175000 -75000 0
162500 -62500 0
175000 -62500 0
150000 -62500 0
162500 -62500 0
150000 -50000 0
162500 -50000 0
162500 -62500 0
175000 -62500 0
162500 -50000 0
175000 -50000 0
175000 -75000 0
187500 -75000 0
175000 -62500 0
187500 -62500 0
187500 -75000 0
200000 -75000 0
187500 -62500 0
200000 -62500 0
175000 -62500 0
187500 -62500 0
175000 -50000 0
187500 -50000 0
187500 -62500 0
200000 -62500 0
187500 -50000 0
200000 -50000 0
150000 -50000 0
162500 -50000 0
150000 -37500 0
162500 -37500 0
162500 -50000 0
175000 -50000 0
162500 -37500 0
175000 -37500 0
150000 -37500 0
162500 -37500 0
150000 -25000 0
162500 -25000 0
162500 -37500 0
175000 -37500 0
162500 -25000 0
175000 -25000 0
175000 -50000 0
187500 -50000 0
175000 -37500 0
187500 -37500 0
187500 -50000 0
200000 -50000 0
187500 -37500 0
200000 -37500 0
175000 -37500 0
187500 -37500 0
175000 -25000 0
187500 -25000 0
187500 -37500 0
200000 -37500 0
187500 -25000 0
200000 -25000 0
175000 -25000 0
187500 -25000 0
175000 -12500 0
187500 -12500 0
187500 -25000 0
200000 -25000 0
187500 -12500 0
200000 -12500 0
175000 -12500 0
187500 -12500 0
175000 0 0
187500 0 0
187500 -12500 0
200000 -12500 0
187500 0 0
200000 0 0
87500 -75000 0
93750 -75000 0
87500 -68750 0
93750 -68750 0
43750 -43750 0
50000 -43750 0
43750 -37500 0
50000 -37500 0
75000 -56250 0
81250 -56250 0
75000 -50000 0
81250 -50000 0
81250 -56250 0
87500 -56250 0
81250 -50000 0
87500 -50000 0
87500 -62500 0
93750 -62500 0
87500 -56250 0
93750 -56250 0
93750 -62500 0
100000 -62500 0
93750 -56250 0
100000 -56250 0
87500 -56250 0
93750 -56250 0
87500 -50000 0
93750 -50000 0
93750 -56250 0
100000 -56250 0
93750 -50000 0
100000 -50000 0
56250 -50000 0
62500 -50000 0
56250 -43750 0
62500 -43750 0
50000 -43750 0
56250 -43750 0
50000 -37500 0
56250 -37500 0
62500 -50000 0
68750 -50000 0
62500 -43750 0
68750 -43750 0
68750 -50000 0
75000 -50000 0
68750 -43750 0
75000 -43750 0
75000 -50000 0
81250 -50000 0
75000 -43750 0
81250 -43750 0
81250 -50000 0
87500 -50000 0
81250 -43750 0
87500 -43750 0
75000 -43750 0
81250 -43750 0
75000 -37500 0
81250 -37500 0
118750 -100000 0
125000 -100000 0
118750 -93750 0
125000 -93750 0
118750 -87500 0
125000 -87500 0
118750 -81250 0
125000 -81250 0
100000 -68750 0
106250 -68750 0
100000 -62500 0
106250 -62500 0
106250 -68750 0
112500 -68750 0
106250 -62500 0
112500 -62500 0
118750 -25000 0
125000 -25000 0
118750 -18750 0
125000 -18750 0
118750 -18750 0
125000 -18750 0
118750 -12500 0
125000 -12500 0
118750 -6250 0
125000 -6250 0
118750 0 0
125000 0 0
106250 -37500 0
112500 -37500 0
106250 -31250 0
112500 -31250 0
112500 -37500 0
118750 -37500 0
112500 -31250 0
118750 -31250 0
118750 -37500 0
125000 -37500 0
118750 -31250 0
125000 -31250 0
112500 -31250 0
118750 -31250 0
112500 -25000 0
118750 -25000 0
118750 -31250 0
125000 -31250 0
118750 -25000 0
125000 -25000 0
87500 -50000 0
93750 -50000 0
87500 -43750 0
93750 -43750 0
93750 -50000 0
100000 -50000 0
93750 -43750 0
100000 -43750 0
87500 -43750 0
93750 -43750 0
87500 -37500 0
93750 -37500 0
93750 -43750 0
100000 -43750 0
93750 -37500 0
100000 -37500 0
87500 -37500 0
93750 -37500 0
87500 -31250 0
93750 -31250 0
93750 -37500 0
100000 -37500 0
93750 -31250 0
100000 -31250 0
87500 -31250 0
93750 -31250 0
87500 -25000 0
93750 -25000 0
93750 -31250 0
100000 -31250 0
93750 -25000 0
100000 -25000 0
100000 -87500 0
106250 -87500 0
100000 -81250 0
106250 -81250 0
106250 -87500 0
112500 -87500 0
106250 -81250 0
112500 -81250 0
100000 -81250 0
106250 -81250 0
100000 -75000 0
106250 -75000 0
106250 -81250 0
112500 -81250 0
106250 -75000 0
112500 -75000 0
125000 -100000 0
131250 -100000 0
125000 -93750 0
131250 -93750 0
131250 -100000 0
137500 -100000 0
131250 -93750 0
137500 -93750 0
125000 -93750 0
131250 -93750 0
125000 -87500 0
131250 -87500 0
131250 -93750 0
137500 -93750 0
131250 -87500 0
137500 -87500 0
137500 -100000 0
143750 -100000 0
137500 -93750 0
143750 -93750 0
143750 -100000 0
150000 -100000 0
143750 -93750 0
150000 -93750 0
137500 -93750 0
143750 -93750 0
137500 -87500 0
143750 -87500 0
143750 -93750 0
150000 -93750 0
143750 -87500 0
150000 -87500 0
125000 -87500 0
131250 -87500 0
125000 -81250 0
131250 -81250 0
131250 -87500 0
137500 -87500 0
131250 -81250 0
137500 -81250 0
125000 -81250 0
131250 -81250 0
125000 -75000 0
131250 -75000 0
131250 -81250 0
137500 -81250 0
131250 -75000 0
137500 -75000 0
137500 -87500 0
143750 -87500 0
137500 -81250 0
143750 -81250 0
143750 -87500 0
150000 -87500 0
143750 -81250 0
150000 -81250 0
137500 -81250 0
143750 -81250 0
137500 -75000 0
143750 -75000 0
143750 -81250 0
150000 -81250 0
143750 -75000 0
150000 -75000 0
112500 -75000 0
118750 -75000 0
112500 -68750 0
118750 -68750 0
118750 -75000 0
125000 -75000 0
118750 -68750 0
125000 -68750 0
112500 -68750 0
118750 -68750 0
112500 -62500 0
118750 -62500 0
118750 -68750 0
125000 -68750 0
118750 -62500 0
125000 -62500 0
100000 -62500 0
106250 -62500 0
100000 -56250 0
106250 -56250 0
106250 -62500 0
112500 -62500 0
106250 -56250 0
112500 -56250 0
100000 -56250 0
106250 -56250 0
100000 -50000 0
106250 -50000 0
106250 -56250 0
112500 -56250 0
106250 -50000 0
112500 -50000 0
112500 -62500 0
118750 -62500 0
112500 -56250 0
118750 -56250 0
118750 -62500 0
125000 -62500 0
118750 -56250 0
125000 -56250 0
112500 -56250 0
118750 -56250 0
112500 -50000 0
118750 -50000 0
118750 -56250 0
125000 -56250 0
118750 -50000 0
125000 -50000 0
100000 -25000 0
106250 -25000 0
100000 -18750 0
106250 -18750 0
106250 -25000 0
112500 -25000 0
106250 -18750 0
112500 -18750 0
100000 -18750 0
106250 -18750 0
100000 -12500 0
106250 -12500 0
106250 -18750 0
112500 -18750 0
106250 -12500 0
112500 -12500 0
100000 -12500 0
106250 -12500 0
100000 -6250 0
106250 -6250 0
106250 -12500 0
112500 -12500 0
106250 -6250 0
112500 -6250 0
100000 -6250 0
106250 -6250 0
100000 0 0
106250 0 0
106250 -6250 0
112500 -6250 0
106250 0 0
112500 0 0
150000 -100000 0
156250 -100000 0
150000 -93750 0
156250 -93750 0
156250 -100000 0
162500 -100000 0
156250 -93750 0
162500 -93750 0
150000 -93750 0
156250 -93750 0
150000 -87500 0
156250 -87500 0
156250 -93750 0
162500 -93750 0
156250 -87500 0
162500 -87500 0
150000 -87500 0
156250 -87500 0
150000 -81250 0
156250 -81250 0
156250 -87500 0
162500 -87500 0
156250 -81250 0
162500 -81250 0
150000 -81250 0
156250 -81250 0
150000 -75000 0
156250 -75000 0
156250 -81250 0
162500 -81250 0
156250 -75000 0
162500 -75000 0
100000 -50000 0
106250 -50000 0
100000 -43750 0
106250 -43750 0
106250 -50000 0
112500 -50000 0
106250 -43750 0
112500 -43750 0
100000 -43750 0
106250 -43750 0
100000 -37500 0
106250 -37500 0
106250 -43750 0
112500 -43750 0
106250 -37500 0
112500 -37500 0
137500 -25000 0
143750 -25000 0
137500 -18750 0
143750 -18750 0
143750 -25000 0
150000 -25000 0
143750 -18750 0
150000 -18750 0
137500 -18750 0
143750 -18750 0
137500 -12500 0
143750 -12500 0
143750 -18750 0
150000 -18750 0
143750 -12500 0
150000 -12500 0
125000 -12500 0
131250 -12500 0
125000 -6250 0
131250 -6250 0
131250 -12500 0
137500 -12500 0
131250 -6250 0
137500 -6250 0
125000 -6250 0
131250 -6250 0
125000 0 0
131250 0 0
131250 -6250 0
137500 -6250 0
131250 0 0
137500 0 0
137500 -12500 0
143750 -12500 0
137500 -6250 0
143750 -6250 0
143750 -12500 0
150000 -12500 0
143750 -6250 0
150000 -6250 0
137500 -6250 0
143750 -6250 0
137500 0 0
143750 0 0
143750 -6250 0
150000 -6250 0
143750 0 0
150000 0 0
125000 -37500 0
131250 -37500 0
125000 -31250 0
131250 -31250 0
131250 -37500 0
137500 -37500 0
131250 -31250 0
137500 -31250 0
125000 -31250 0
131250 -31250 0
125000 -25000 0
131250 -25000 0
131250 -31250 0
137500 -31250 0
131250 -25000 0
137500 -25000 0
137500 -37500 0
143750 -37500 0
137500 -31250 0
143750 -31250 0
143750 -37500 0
150000 -37500 0
143750 -31250 0
150000 -31250 0
137500 -31250 0
143750 -31250 0
137500 -25000 0
143750 -25000 0
143750 -31250 0
150000 -31250 0
143750 -25000 0
150000 -25000 0
150000 -25000 0
156250 -25000 0
150000 -18750 0
156250 -18750 0
156250 -25000 0
162500 -25000 0
156250 -18750 0
162500 -18750 0
150000 -18750 0
156250 -18750 0
150000 -12500 0
156250 -12500 0
156250 -18750 0
162500 -18750 0
156250 -12500 0
162500 -12500 0
162500 -25000 0
168750 -25000 0
162500 -18750 0
168750 -18750 0
168750 -25000 0
175000 -25000 0
168750 -18750 0
175000 -18750 0
162500 -18750 0
168750 -18750 0
162500 -12500 0
168750 -12500 0
168750 -18750 0
175000 -18750 0
168750 -12500 0
175000 -12500 0
150000 -12500 0
156250 -12500 0
150000 -6250 0
156250 -6250 0
156250 -12500 0
162500 -12500 0
156250 -6250 0
162500 -6250 0
150000 -6250 0
156250 -6250 0
150000 0 0
156250 0 0
156250 -6250 0
162500 -6250 0
156250 0 0
162500 0 0
0 -100000 0
3125 -100000 0
0 -96875 0
3125 -96875 0
3125 -100000 0
6250 -100000 0
3125 -96875 0
6250 -96875 0
0 -96875 0
3125 -96875 0
0 -93750 0
3125 -93750 0
3125 -96875 0
6250 -96875 0
3125 -93750 0
[...]
POINT_DATA 18272
SCALARS history_field_xz double 1
LOOKUP_TABLE default
4.902e+08 4.902e+08 4.90459e+08 4.90459e+08 4.90459e+08 4.90459e+08 4.91334e+08 4.91334e+08 4.93686e+08 4.93686e+08 5.01444e+08 5.01444e+08 5.03527e+08 5.03527e+08 5.06558e+08 5.06558e+08 4.93789e+08 4.93789e+08 4.98963e+08 4.98963e+08 4.93813e+08 4.93813e+08 4.97225e+08 4.97225e+08 4.97221e+08 4.97221e+08 4.97581e+08 4.97581e+08 4.84204e+08 4.84204e+08 4.88538e+08 4.88538e+08 4.87539e+08 4.87539e+08 4.90404e+08 4.90404e+08 4.88538e+08 4.88538e+08 4.93789e+08 4.93789e+08 4.90404e+08 4.90404e+08 4.93813e+08 4.93813e+08 4.91881e+08 4.91881e+08 4.92042e+08 4.92042e+08 4.93249e+08 4.93249e+08 4.93298e+08 4.93298e+08 4.92042e+08 4.92042e+08 4.9248e+08 4.9248e+08 4.93298e+08 4.93298e+08 4.93436e+08 4.93436e+08 4.89855e+08 4.89855e+08 4.91646e+08 4.91646e+08 4.91334e+08 4.91334e+08 4.92505e+08 4.92505e+08 4.91646e+08 4.91646e+08 4.9385e+08 4.9385e+08 4.92505e+08 4.92505e+08 4.9387e+08 4.9387e+08 4.9248e+08 4.9248e+08 4.93127e+08 4.93127e+08 4.93436e+08 4.93436e+08 4.9364e+08 4.9364e+08 4.93127e+08 4.93127e+08 4.93876e+08 4.93876e+08 4.9364e+08 4.9364e+08 4.93878e+08 4.93878e+08 4.9385e+08 4.9385e+08 4.96086e+08 4.96086e+08 4.9387e+08 4.9387e+08 4.95249e+08 4.95249e+08 4.96086e+08 4.96086e+08 4.98055e+08 4.98055e+08 4.95249e+08 4.95249e+08 4.96348e+08 4.96348e+08 4.93876e+08 4.93876e+08 4.94619e+08 4.94619e+08 4.93878e+08 4.93878e+08 4.94118e+08 4.94118e+08 4.94619e+08 4.94619e+08 4.95289e+08 4.95289e+08 4.94118e+08 4.94118e+08 4.94324e+08 4.94324e+08 4.95289e+08 4.95289e+08 4.9573e+08 4.9573e+08 4.94324e+08 4.94324e+08 4.94462e+08 4.94462e+08 4.9573e+08 4.9573e+08 4.95865e+08 4.95865e+08 4.94462e+08 4.94462e+08 4.94511e+08 4.94511e+08 4.59285e+08 4.59285e+08 4.66104e+08 4.66104e+08 5.07627e+08 5.07627e+08 5.49849e+08 5.49849e+08 4.76376e+08 4.76376e+08 4.90406e+08 4.90406e+08 4.80297e+08 4.80297e+08 4.91533e+08 4.91533e+08 4.73882e+08 4.73882e+08 4.82913e+08 4.82913e+08 4.77881e+08 4.77881e+08 4.85066e+08 4.85066e+08 4.82913e+08 4.82913e+08 4.92316e+08 4.92316e+08 4.85066e+08 4.85066e+08 4.92818e+08 4.92818e+08 4.82301e+08 4.82301e+08 5.08866e+08 5.08866e+08 5.09185e+08 5.09185e+08 5.42293e+08 5.42293e+08 4.86207e+08 4.86207e+08 5.07656e+08 5.07656e+08 4.88848e+08 4.88848e+08 5.06146e+08 5.06146e+08 4.90406e+08 4.90406e+08 5.04796e+08 5.04796e+08 4.91533e+08 4.91533e+08 5.03286e+08 5.03286e+08 5.04796e+08 5.04796e+08 5.1913e+08 5.1913e+08 4.75833e+08 4.75833e+08 4.7635e+08 4.7635e+08 4.77382e+08 4.77382e+08 4.79073e+08 4.79073e+08 4.75172e+08 4.75172e+08 4.80761e+08 4.80761e+08 4.78756e+08 4.78756e+08 4.83158e+08 4.83158e+08 5.06404e+08 5.06404e+08 5.10212e+08 5.10212e+08 5.10212e+08 5.10212e+08 5.10476e+08 5.10476e+08 5.11571e+08 5.11571e+08 5.12242e+08 5.12242e+08 5.0386e+08 5.0386e+08 5.08589e+08 5.08589e+08 5.01444e+08 5.01444e+08 5.06067e+08 5.06067e+08 5.01444e+08 5.01444e+08 5.0371e+08 5.0371e+08 5.06067e+08 5.06067e+08 5.09689e+08 5.09689e+08 5.0371e+08 5.0371e+08 5.06404e+08 5.06404e+08 4.92316e+08 4.92316e+08 5.01875e+08 5.01875e+08 4.92818e+08 4.92818e+08 5.0074e+08 5.0074e+08 5.01875e+08 5.01875e+08 5.11489e+08 5.11489e+08 5.0074e+08 5.0074e+08 5.08554e+08 5.08554e+08 5.11489e+08 5.11489e+08 5.20512e+08 5.20512e+08 5.08554e+08 5.08554e+08 5.1563e+08 5.1563e+08 5.20512e+08 5.20512e+08 5.28599e+08 5.28599e+08 5.1563e+08 5.1563e+08 5.21975e+08 5.21975e+08 4.63829e+08 4.63829e+08 4.66621e+08 4.66621e+08 4.69327e+08 4.69327e+08 4.7165e+08 4.7165e+08 4.66621e+08 4.66621e+08 4.705e+08 4.705e+08 4.7165e+08 4.7165e+08 4.74834e+08 4.74834e+08 4.79137e+08 4.79137e+08 4.79373e+08 4.79373e+08 4.81785e+08 4.81785e+08 4.82015e+08 4.82015e+08 4.79373e+08 4.79373e+08 4.8023e+08 4.8023e+08 4.82015e+08 4.82015e+08 4.82682e+08 4.82682e+08 4.83999e+08 4.83999e+08 4.84183e+08 4.84183e+08 4.85839e+08 4.85839e+08 4.85983e+08 4.85983e+08 4.84183e+08 4.84183e+08 4.84735e+08 4.84735e+08 4.85983e+08 4.85983e+08 4.86426e+08 4.86426e+08 4.8023e+08 4.8023e+08 4.81562e+08 4.81562e+08 4.82682e+08 4.82682e+08 4.83835e+08 4.83835e+08 4.81562e+08 4.81562e+08 4.84204e+08 4.84204e+08 4.83835e+08 4.83835e+08 4.84204e+08 4.84204e+08 4.84735e+08 4.84735e+08 4.85524e+08 4.85524e+08 4.86426e+08 4.86426e+08 4.87231e+08 4.87231e+08 4.85524e+08 4.85524e+08 4.87539e+08 4.87539e+08 4.87231e+08 4.87231e+08 4.87539e+08 4.87539e+08 4.77949e+08 4.77949e+08 4.81328e+08 4.81328e+08 4.81324e+08 4.81324e+08 4.83024e+08 4.83024e+08 4.81328e+08 4.81328e+08 4.85084e+08 4.85084e+08 4.83024e+08 4.83024e+08 4.87079e+08 4.87079e+08 4.80761e+08 4.80761e+08 4.86778e+08 4.86778e+08 4.83158e+08 4.83158e+08 4.8814e+08 4.8814e+08 4.86778e+08 4.86778e+08 4.9318e+08 4.9318e+08 4.8814e+08 4.8814e+08 4.93221e+08 4.93221e+08 4.85084e+08 4.85084e+08 4.89249e+08 4.89249e+08 4.87079e+08 4.87079e+08 4.89936e+08 4.89936e+08 4.89249e+08 4.89249e+08 4.93686e+08 4.93686e+08 4.89936e+08 4.89936e+08 4.93686e+08 4.93686e+08 5.1729e+08 5.1729e+08 5.21737e+08 5.21737e+08 5.12892e+08 5.12892e+08 5.16583e+08 5.16583e+08 5.21737e+08 5.21737e+08 5.24934e+08 5.24934e+08 5.16583e+08 5.16583e+08 5.19279e+08 5.19279e+08 5.24934e+08 5.24934e+08 5.26954e+08 5.26954e+08 5.19279e+08 5.19279e+08 5.20888e+08 5.20888e+08 5.26954e+08 5.26954e+08 5.27635e+08 5.27635e+08 5.20888e+08 5.20888e+08 5.2145e+08 5.2145e+08 4.87341e+08 4.87341e+08 4.87521e+08 4.87521e+08 4.88949e+08 4.88949e+08 4.88466e+08 4.88466e+08 4.87521e+08 4.87521e+08 4.87823e+08 4.87823e+08 4.88466e+08 4.88466e+08 4.89338e+08 4.89338e+08 4.87823e+08 4.87823e+08 4.8841e+08 4.8841e+08 4.89338e+08 4.89338e+08 4.89211e+08 4.89211e+08 4.8841e+08 4.8841e+08 4.89855e+08 4.89855e+08 4.89211e+08 4.89211e+08 4.89855e+08 4.89855e+08 4.9318e+08 4.9318e+08 4.99674e+08 4.99674e+08 4.93221e+08 4.93221e+08 4.99004e+08 4.99004e+08 4.99674e+08 4.99674e+08 5.06011e+08 5.06011e+08 4.99004e+08 4.99004e+08 5.0386e+08 5.0386e+08 5.01091e+08 5.01091e+08 5.01384e+08 5.01384e+08 4.99434e+08 4.99434e+08 5.00444e+08 5.00444e+08 5.01384e+08 5.01384e+08 5.03173e+08 5.03173e+08 5.00444e+08 5.00444e+08 5.01279e+08 5.01279e+08 5.06558e+08 5.06558e+08 5.0862e+08 5.0862e+08 5.06558e+08 5.06558e+08 5.05984e+08 5.05984e+08 5.0862e+08 5.0862e+08 5.08853e+08 5.08853e+08 5.05984e+08 5.05984e+08 5.0623e+08 5.0623e+08 5.03173e+08 5.03173e+08 5.03898e+08 5.03898e+08 5.01279e+08 5.01279e+08 5.01891e+08 5.01891e+08 5.03898e+08 5.03898e+08 5.03983e+08 5.03983e+08 5.01891e+08 5.01891e+08 5.02085e+08 5.02085e+08 4.98963e+08 4.98963e+08 5.02146e+08 5.02146e+08 4.98963e+08 4.98963e+08 5.00631e+08 5.00631e+08 5.02146e+08 5.02146e+08 5.03527e+08 5.03527e+08 5.00631e+08 5.00631e+08 5.03527e+08 5.03527e+08 4.97225e+08 4.97225e+08 4.99606e+08 4.99606e+08 4.97225e+08 4.97225e+08 4.98749e+08 4.98749e+08 4.99606e+08 4.99606e+08 5.01091e+08 5.01091e+08 4.98749e+08 4.98749e+08 4.99434e+08 4.99434e+08 4.98055e+08 4.98055e+08 4.99234e+08 4.99234e+08 4.98055e+08 4.98055e+08 4.98096e+08 4.98096e+08 4.99234e+08 4.99234e+08 4.99903e+08 4.99903e+08 4.98096e+08 4.98096e+08 4.98607e+08 4.98607e+08 4.96348e+08 4.96348e+08 4.97345e+08 4.97345e+08 4.96348e+08 4.96348e+08 4.96865e+08 4.96865e+08 4.97345e+08 4.97345e+08 4.97221e+08 4.97221e+08 4.96865e+08 4.96865e+08 4.97221e+08 4.97221e+08 4.99903e+08 4.99903e+08 5.00306e+08 5.00306e+08 4.98607e+08 4.98607e+08 4.99366e+08 4.99366e+08 5.00306e+08 5.00306e+08 5.00504e+08 5.00504e+08 4.99366e+08 4.99366e+08 4.98817e+08 4.98817e+08 1.31492e+07 1.31492e+07 1.31914e+07 1.31914e+07 3.93643e+07 3.93643e+07 3.94892e+07 3.94892e+07 1.31914e+07 1.31914e+07 1.3319e+07 1.3319e+07 3.94892e+07 3.94892e+07 3.98691e+07 3.98691e+07 6.53326e+07 6.53326e+07 6.55356e+07 6.55356e+07 9.09001e+07 9.09001e+07 9.11736e+07 9.11736e+07 6.55356e+07 6.55356e+07 6.61524e+07 6.61524e+07 9.11736e+07 9.11736e+07 9.20041e+07 9.20041e+07 1.3319e+07 1.3319e+07 1.35384e+07 1.35384e+07 3.98691e+07 3.98691e+07 4.05128e+07 4.05128e+07 1.35384e+07 1.35384e+07 1.37915e+07 1.37915e+07 4.05128e+07 4.05128e+07 4.14642e+07 4.14642e+07 6.61524e+07 6.61524e+07 6.72134e+07 6.72134e+07 9.20041e+07 9.20041e+07 9.34212e+07 9.34212e+07 6.72134e+07 6.72134e+07 6.87542e+07 6.87542e+07 9.34212e+07 9.34212e+07 9.55293e+07 9.55293e+07 1.15927e+08 1.15927e+08 1.16262e+08 1.16262e+08 1.40291e+08 1.40291e+08 1.40677e+08 1.40677e+08 1.16262e+08 1.16262e+08 1.17275e+08 1.17275e+08 1.40677e+08 1.40677e+08 1.41844e+08 1.41844e+08 1.63897e+08 1.63897e+08 1.64314e+08 1.64314e+08 1.86663e+08 1.86663e+08 1.87119e+08 1.87119e+08 1.64314e+08 1.64314e+08 1.65603e+08 1.65603e+08 1.87119e+08 1.87119e+08 1.88419e+08 1.88419e+08 1.17275e+08 1.17275e+08 1.18999e+08 1.18999e+08 1.41844e+08 1.41844e+08 1.43823e+08 1.43823e+08 1.18999e+08 1.18999e+08 1.21442e+08 1.21442e+08 1.43823e+08 1.43823e+08 1.46655e+08 1.46655e+08 1.65603e+08 1.65603e+08 1.67801e+08 1.67801e+08 1.88419e+08 1.88419e+08 1.90824e+08 1.90824e+08 1.67801e+08 1.67801e+08 1.70967e+08 1.70967e+08 1.90824e+08 1.90824e+08 1.94273e+08 1.94273e+08 1.37915e+07 1.37915e+07 1.40598e+07 1.40598e+07 4.14642e+07 4.14642e+07 4.21469e+07 4.21469e+07 6.87542e+07 6.87542e+07 7.16965e+07 7.16965e+07 9.55293e+07 9.55293e+07 9.80496e+07 9.80496e+07 9.80496e+07 9.80496e+07 1.01324e+08 1.01324e+08 1.21442e+08 1.21442e+08 1.24658e+08 1.24658e+08 1.46655e+08 1.46655e+08 1.50398e+08 1.50398e+08 1.24658e+08 1.24658e+08 1.28726e+08 1.28726e+08 1.50398e+08 1.50398e+08 1.55141e+08 1.55141e+08 1.70967e+08 1.70967e+08 1.75151e+08 1.75151e+08 1.94273e+08 1.94273e+08 1.98808e+08 1.98808e+08 1.75151e+08 1.75151e+08 1.80445e+08 1.80445e+08 1.98808e+08 1.98808e+08 2.04524e+08 2.04524e+08 1.28726e+08 1.28726e+08 1.33756e+08 1.33756e+08 1.55141e+08 1.55141e+08 1.61017e+08 1.61017e+08 1.61017e+08 1.61017e+08 1.68191e+08 1.68191e+08 1.80445e+08 1.80445e+08 1.86974e+08 1.86974e+08 2.04524e+08 2.04524e+08 2.11544e+08 2.11544e+08 1.86974e+08 1.86974e+08 1.94909e+08 1.94909e+08 2.11544e+08 2.11544e+08 2.20024e+08 2.20024e+08 2.09205e+08 2.09205e+08 2.08669e+08 2.08669e+08 2.08669e+08 2.08669e+08 2.10184e+08 2.10184e+08 2.28691e+08 2.28691e+08 2.31093e+08 2.31093e+08 2.49762e+08 2.49762e+08 2.51063e+08 2.51063e+08 2.10184e+08 2.10184e+08 2.1284e+08 2.1284e+08 2.31093e+08 2.31093e+08 2.33819e+08 2.33819e+08 2.1284e+08 2.1284e+08 2.16503e+08 2.16503e+08 2.33819e+08 2.33819e+08 2.37607e+08 2.37607e+08 2.51063e+08 2.51063e+08 2.53717e+08 2.53717e+08 2.53717e+08 2.53717e+08 2.57547e+08 2.57547e+08 4.53551e+08 4.53551e+08 4.70901e+08 4.70901e+08 3.98446e+08 3.98446e+08 3.98833e+08 3.98833e+08 4.07024e+08 4.07024e+08 4.07249e+08 4.07249e+08 4.14806e+08 4.14806e+08 4.15388e+08 4.15388e+08 2.16503e+08 2.16503e+08 2.21293e+08 2.21293e+08 2.37607e+08 2.37607e+08 2.42558e+08 2.42558e+08 2.21293e+08 2.21293e+08 2.2731e+08 2.2731e+08 2.42558e+08 2.42558e+08 2.48762e+08 2.48762e+08 2.57547e+08 2.57547e+08 2.62576e+08 2.62576e+08 2.62576e+08 2.62576e+08 2.68867e+08 2.68867e+08 2.2731e+08 2.2731e+08 2.34666e+08 2.34666e+08 2.48762e+08 2.48762e+08 2.5632e+08 2.5632e+08 2.34666e+08 2.34666e+08 2.43501e+08 2.43501e+08 2.5632e+08 2.5632e+08 2.65346e+08 2.65346e+08 2.68867e+08 2.68867e+08 2.76507e+08 2.76507e+08 2.76507e+08 2.76507e+08 2.85604e+08 2.85604e+08 4.19179e+08 4.19179e+08 4.23542e+08 4.23542e+08 1.94909e+08 1.94909e+08 2.04489e+08 2.04489e+08 2.20024e+08 2.20024e+08 2.30229e+08 2.30229e+08 2.30229e+08 2.30229e+08 2.41282e+08 2.41282e+08 2.41282e+08 2.41282e+08 2.55872e+08 2.55872e+08 2.55872e+08 2.55872e+08 2.73723e+08 2.73723e+08 2.43501e+08 2.43501e+08 2.5388e+08 2.5388e+08 2.65346e+08 2.65346e+08 2.76e+08 2.76e+08 2.5388e+08 2.5388e+08 2.6618e+08 2.6618e+08 2.76e+08 2.76e+08 2.88482e+08 2.88482e+08 2.85604e+08 2.85604e+08 2.9629e+08 2.9629e+08 2.9629e+08 2.9629e+08 3.08714e+08 3.08714e+08 2.6618e+08 2.6618e+08 2.80749e+08 2.80749e+08 2.88482e+08 2.88482e+08 3.02947e+08 3.02947e+08 2.80749e+08 2.80749e+08 2.97943e+08 2.97943e+08 3.02947e+08 3.02947e+08 3.19562e+08 3.19562e+08 3.08714e+08 3.08714e+08 3.23095e+08 3.23095e+08 3.23095e+08 3.23095e+08 3.3885e+08 3.3885e+08 2.84902e+08 2.84902e+08 2.85594e+08 2.85594e+08 3.0159e+08 3.0159e+08 3.02142e+08 3.02142e+08 2.85594e+08 2.85594e+08 2.87347e+08 2.87347e+08 3.02142e+08 3.02142e+08 3.03778e+08 3.03778e+08 4.29973e+08 4.29973e+08 4.39377e+08 4.39377e+08 4.37627e+08 4.37627e+08 4.50494e+08 4.50494e+08 2.97943e+08 2.97943e+08 3.16772e+08 3.16772e+08 3.19562e+08 3.19562e+08 3.39449e+08 3.39449e+08 3.16772e+08 3.16772e+08 3.39941e+08 3.39941e+08 3.39449e+08 3.39449e+08 3.61278e+08 3.61278e+08 3.39941e+08 3.39941e+08 3.65819e+08 3.65819e+08 3.61278e+08 3.61278e+08 3.86094e+08 3.86094e+08 3.65819e+08 3.65819e+08 3.96817e+08 3.96817e+08 4.32767e+08 4.32767e+08 4.43805e+08 4.43805e+08 4.39377e+08 4.39377e+08 4.49418e+08 4.49418e+08 4.43805e+08 4.43805e+08 4.55701e+08 4.55701e+08 4.49418e+08 4.49418e+08 4.60211e+08 4.60211e+08 4.44232e+08 4.44232e+08 4.59166e+08 4.59166e+08 4.50494e+08 4.50494e+08 4.64195e+08 4.64195e+08 4.59166e+08 4.59166e+08 4.75007e+08 4.75007e+08 4.64195e+08 4.64195e+08 4.78488e+08 4.78488e+08 5.13709e+08 5.13709e+08 5.62079e+08 5.62079e+08 5.22123e+08 5.22123e+08 5.63486e+08 5.63486e+08 4.75746e+08 4.75746e+08 5.0224e+08 5.0224e+08 4.81997e+08 4.81997e+08 5.04924e+08 5.04924e+08 5.58341e+08 5.58341e+08 5.87554e+08 5.87554e+08 5.55288e+08 5.55288e+08 5.801e+08 5.801e+08 5.49849e+08 5.49849e+08 5.73949e+08 5.73949e+08 5.49849e+08 5.49849e+08 5.67661e+08 5.67661e+08 5.42293e+08 5.42293e+08 5.62317e+08 5.62317e+08 5.42293e+08 5.42293e+08 5.5634e+08 5.5634e+08 5.3729e+08 5.3729e+08 5.51723e+08 5.51723e+08 5.33977e+08 5.33977e+08 5.46692e+08 5.46692e+08 5.51723e+08 5.51723e+08 5.65322e+08 5.65322e+08 5.46692e+08 5.46692e+08 5.58907e+08 5.58907e+08 5.58907e+08 5.58907e+08 5.70635e+08 5.70635e+08 5.62427e+08 5.62427e+08 5.64047e+08 5.64047e+08 3.74937e+08 3.74937e+08 4.11281e+08 4.11281e+08 4.11281e+08 4.11281e+08 4.5388e+08 4.5388e+08 5.57583e+08 5.57583e+08 6.16913e+08 6.16913e+08 5.47653e+08 5.47653e+08 5.49805e+08 5.49805e+08 5.55399e+08 5.55399e+08 5.57478e+08 5.57478e+08 5.49805e+08 5.49805e+08 5.51272e+08 5.51272e+08 5.62079e+08 5.62079e+08 6.13035e+08 6.13035e+08 5.63486e+08 5.63486e+08 6.06961e+08 6.06961e+08 5.73386e+08 5.73386e+08 5.73752e+08 5.73752e+08 5.65062e+08 5.65062e+08 5.65806e+08 5.65806e+08 6.65298e+08 6.65298e+08 7.17134e+08 7.17134e+08 6.76444e+08 6.76444e+08 7.11058e+08 7.11058e+08 6.58589e+08 6.58589e+08 6.89631e+08 6.89631e+08 5.57478e+08 5.57478e+08 5.58529e+08 5.58529e+08 5.51272e+08 5.51272e+08 5.52224e+08 5.52224e+08 5.58529e+08 5.58529e+08 5.58747e+08 5.58747e+08 5.52224e+08 5.52224e+08 5.52538e+08 5.52538e+08 6.89631e+08 6.89631e+08 7.17552e+08 7.17552e+08 6.70492e+08 6.70492e+08 6.94756e+08 6.94756e+08 6.94756e+08 6.94756e+08 7.17608e+08 7.17608e+08 6.74828e+08 6.74828e+08 6.94014e+08 6.94014e+08 7.17608e+08 7.17608e+08 7.3484e+08 7.3484e+08 6.94014e+08 6.94014e+08 7.10501e+08 7.10501e+08 7.10501e+08 7.10501e+08 7.25212e+08 7.25212e+08 6.7396e+08 6.7396e+08 6.88583e+08 6.88583e+08 6.88583e+08 6.88583e+08 7.00765e+08 7.00765e+08 6.69178e+08 6.69178e+08 6.7923e+08 6.7923e+08 7.25212e+08 7.25212e+08 7.34477e+08 7.34477e+08 7.00765e+08 7.00765e+08 7.10302e+08 7.10302e+08 6.7923e+08 6.7923e+08 6.88635e+08 6.88635e+08 7.10302e+08 7.10302e+08 7.1817e+08 7.1817e+08 6.88635e+08 6.88635e+08 6.94896e+08 6.94896e+08 7.1817e+08 7.1817e+08 7.21782e+08 7.21782e+08 6.94896e+08 6.94896e+08 6.98721e+08 6.98721e+08 7.21782e+08 7.21782e+08 7.23111e+08 7.23111e+08 6.98721e+08 6.98721e+08 6.98954e+08 6.98954e+08 3.17101e+08 3.17101e+08 3.17625e+08 3.17625e+08 3.31558e+08 3.31558e+08 3.32062e+08 3.32062e+08 3.17625e+08 3.17625e+08 3.19196e+08 3.19196e+08 3.32062e+08 3.32062e+08 3.33574e+08 3.33574e+08 2.87347e+08 2.87347e+08 2.90037e+08 2.90037e+08 3.03778e+08 3.03778e+08 3.0647e+08 3.0647e+08 2.90037e+08 2.90037e+08 2.93855e+08 2.93855e+08 3.0647e+08 3.0647e+08 3.10242e+08 3.10242e+08 3.19196e+08 3.19196e+08 3.21814e+08 3.21814e+08 3.33574e+08 3.33574e+08 3.36102e+08 3.36102e+08 3.21814e+08 3.21814e+08 3.25494e+08 3.25494e+08 3.36102e+08 3.36102e+08 3.39657e+08 3.39657e+08 2.93855e+08 2.93855e+08 2.9885e+08 2.9885e+08 3.10242e+08 3.10242e+08 3.15147e+08 3.15147e+08 2.9885e+08 2.9885e+08 3.05068e+08 3.05068e+08 3.15147e+08 3.15147e+08 3.21231e+08 3.21231e+08 3.25494e+08 3.25494e+08 3.30266e+08 3.30266e+08 3.39657e+08 3.39657e+08 3.44258e+08 3.44258e+08 3.30266e+08 3.30266e+08 3.36166e+08 3.36166e+08 3.44258e+08 3.44258e+08 3.49931e+08 3.49931e+08 6.69234e+08 6.69234e+08 6.74094e+08 6.74094e+08 3.05068e+08 3.05068e+08 3.12571e+08 3.12571e+08 3.21231e+08 3.21231e+08 3.28546e+08 3.28546e+08 3.12571e+08 3.12571e+08 3.21431e+08 3.21431e+08 3.28546e+08 3.28546e+08 3.3715e+08 3.3715e+08 6.74094e+08 6.74094e+08 6.7823e+08 6.7823e+08 3.36166e+08 3.36166e+08 3.43235e+08 3.43235e+08 3.49931e+08 3.49931e+08 3.56711e+08 3.56711e+08 3.43235e+08 3.43235e+08 3.51518e+08 3.51518e+08 3.56711e+08 3.56711e+08 3.64629e+08 3.64629e+08 3.21431e+08 3.21431e+08 3.31735e+08 3.31735e+08 3.3715e+08 3.3715e+08 3.47104e+08 3.47104e+08 3.31735e+08 3.31735e+08 3.43579e+08 3.43579e+08 3.47104e+08 3.47104e+08 3.58477e+08 3.58477e+08 3.51518e+08 3.51518e+08 3.61055e+08 3.61055e+08 3.64629e+08 3.64629e+08 3.73711e+08 3.73711e+08 3.61055e+08 3.61055e+08 3.71887e+08 3.71887e+08 3.73711e+08 3.73711e+08 3.83968e+08 3.83968e+08 3.43579e+08 3.43579e+08 3.57076e+08 3.57076e+08 3.58477e+08 3.58477e+08 3.71324e+08 3.71324e+08 3.57076e+08 3.57076e+08 3.72184e+08 3.72184e+08 3.71324e+08 3.71324e+08 3.85692e+08 3.85692e+08 3.71887e+08 3.71887e+08 3.84058e+08 3.84058e+08 3.83968e+08 3.83968e+08 3.95395e+08 3.95395e+08 3.84058e+08 3.84058e+08 3.97638e+08 3.97638e+08 3.95395e+08 3.95395e+08 4.08086e+08 4.08086e+08 3.72184e+08 3.72184e+08 3.8906e+08 3.8906e+08 3.85692e+08 3.85692e+08 4.01613e+08 4.01613e+08 3.8906e+08 3.8906e+08 4.0796e+08 4.0796e+08 4.01613e+08 4.01613e+08 4.1919e+08 4.1919e+08 3.97638e+08 3.97638e+08 4.12582e+08 4.12582e+08 4.08086e+08 4.08086e+08 4.22353e+08 4.22353e+08 4.12582e+08 4.12582e+08 4.28599e+08 4.28599e+08 4.22353e+08 4.22353e+08 4.37481e+08 4.37481e+08 4.0796e+08 4.0796e+08 4.28587e+08 4.28587e+08 4.1919e+08 4.1919e+08 4.38772e+08 4.38772e+08 4.28587e+08 4.28587e+08 4.51333e+08 4.51333e+08 4.38772e+08 4.38772e+08 4.59541e+08 4.59541e+08 3.45009e+08 3.45009e+08 3.45491e+08 3.45491e+08 3.57499e+08 3.57499e+08 3.57956e+08 3.57956e+08 3.45491e+08 3.45491e+08 3.46939e+08 3.46939e+08 3.57956e+08 3.57956e+08 3.59328e+08 3.59328e+08 3.69095e+08 3.69095e+08 3.69498e+08 3.69498e+08 3.79708e+08 3.79708e+08 3.80321e+08 3.80321e+08 3.69498e+08 3.69498e+08 3.70789e+08 3.70789e+08 3.80321e+08 3.80321e+08 3.81286e+08 3.81286e+08 3.46939e+08 3.46939e+08 3.49364e+08 3.49364e+08 3.59328e+08 3.59328e+08 3.6164e+08 3.6164e+08 3.49364e+08 3.49364e+08 3.52775e+08 3.52775e+08 3.6164e+08 3.6164e+08 3.64896e+08 3.64896e+08 3.70789e+08 3.70789e+08 3.72951e+08 3.72951e+08 3.81286e+08 3.81286e+08 3.83331e+08 3.83331e+08 3.72951e+08 3.72951e+08 3.76075e+08 3.76075e+08 3.83331e+08 3.83331e+08 3.86265e+08 3.86265e+08 3.90805e+08 3.90805e+08 3.93052e+08 3.93052e+08 4.00452e+08 4.00452e+08 4.02083e+08 4.02083e+08 3.93052e+08 3.93052e+08 3.95428e+08 3.95428e+08 4.02083e+08 4.02083e+08 4.04763e+08 4.04763e+08 3.52775e+08 3.52775e+08 3.57182e+08 3.57182e+08 3.64896e+08 3.64896e+08 3.69101e+08 3.69101e+08 3.57182e+08 3.57182e+08 3.62594e+08 3.62594e+08 3.69101e+08 3.69101e+08 3.74241e+08 3.74241e+08 3.76075e+08 3.76075e+08 3.80081e+08 3.80081e+08 3.86265e+08 3.86265e+08 3.90332e+08 3.90332e+08 3.80081e+08 3.80081e+08 3.84969e+08 3.84969e+08 3.90332e+08 3.90332e+08 3.94765e+08 3.94765e+08 3.62594e+08 3.62594e+08 3.69039e+08 3.69039e+08 3.74241e+08 3.74241e+08 3.80287e+08 3.80287e+08 3.69039e+08 3.69039e+08 3.76579e+08 3.76579e+08 3.80287e+08 3.80287e+08 3.87341e+08 3.87341e+08 3.84969e+08 3.84969e+08 3.90676e+08 3.90676e+08 3.94765e+08 3.94765e+08 4.00272e+08 4.00272e+08 3.90676e+08 3.90676e+08 3.96857e+08 3.96857e+08 4.00272e+08 4.00272e+08 4.06675e+08 4.06675e+08 4.63916e+08 4.63916e+08 4.68173e+08 4.68173e+08 4.67314e+08 4.67314e+08 4.69919e+08 4.69