# vtk DataFile Version 3.0
#This file was generated by the deal.II library on 2016/5/13 at 16:44:16
ASCII
DATASET UNSTRUCTURED_GRID

POINTS 18272 double
162500 -100000 0
175000 -100000 0
162500 -87500 0
175000 -87500 0
162500 -87500 0
175000 -87500 0
162500 -75000 0
175000 -75000 0
112500 -50000 0
125000 -50000 0
112500 -37500 0
125000 -37500 0
125000 -25000 0
137500 -25000 0
125000 -12500 0
137500 -12500 0
125000 -50000 0
137500 -50000 0
125000 -37500 0
137500 -37500 0
137500 -50000 0
150000 -50000 0
137500 -37500 0
150000 -37500 0
162500 -12500 0
175000 -12500 0
162500 0 0
175000 0 0
125000 -75000 0
137500 -75000 0
125000 -62500 0
137500 -62500 0
137500 -75000 0
150000 -75000 0
137500 -62500 0
150000 -62500 0
125000 -62500 0
137500 -62500 0
125000 -50000 0
137500 -50000 0
137500 -62500 0
150000 -62500 0
137500 -50000 0
150000 -50000 0
175000 -100000 0
187500 -100000 0
175000 -87500 0
187500 -87500 0
187500 -100000 0
200000 -100000 0
187500 -87500 0
200000 -87500 0
175000 -87500 0
187500 -87500 0
175000 -75000 0
187500 -75000 0
187500 -87500 0
200000 -87500 0
187500 -75000 0
200000 -75000 0
150000 -75000 0
162500 -75000 0
150000 -62500 0
162500 -62500 0
162500 -75000 0
175000 -75000 0
162500 -62500 0
175000 -62500 0
150000 -62500 0
162500 -62500 0
150000 -50000 0
162500 -50000 0
162500 -62500 0
175000 -62500 0
162500 -50000 0
175000 -50000 0
175000 -75000 0
187500 -75000 0
175000 -62500 0
187500 -62500 0
187500 -75000 0
200000 -75000 0
187500 -62500 0
200000 -62500 0
175000 -62500 0
187500 -62500 0
175000 -50000 0
187500 -50000 0
187500 -62500 0
200000 -62500 0
187500 -50000 0
200000 -50000 0
150000 -50000 0
162500 -50000 0
150000 -37500 0
162500 -37500 0
162500 -50000 0
175000 -50000 0
162500 -37500 0
175000 -37500 0
150000 -37500 0
162500 -37500 0
150000 -25000 0
162500 -25000 0
162500 -37500 0
175000 -37500 0
162500 -25000 0
175000 -25000 0
175000 -50000 0
187500 -50000 0
175000 -37500 0
187500 -37500 0
187500 -50000 0
200000 -50000 0
187500 -37500 0
200000 -37500 0
175000 -37500 0
187500 -37500 0
175000 -25000 0
187500 -25000 0
187500 -37500 0
200000 -37500 0
187500 -25000 0
200000 -25000 0
175000 -25000 0
187500 -25000 0
175000 -12500 0
187500 -12500 0
187500 -25000 0
200000 -25000 0
187500 -12500 0
200000 -12500 0
175000 -12500 0
187500 -12500 0
175000 0 0
187500 0 0
187500 -12500 0
200000 -12500 0
187500 0 0
200000 0 0
87500 -75000 0
93750 -75000 0
87500 -68750 0
93750 -68750 0
43750 -43750 0
50000 -43750 0
43750 -37500 0
50000 -37500 0
75000 -56250 0
81250 -56250 0
75000 -50000 0
81250 -50000 0
81250 -56250 0
87500 -56250 0
81250 -50000 0
87500 -50000 0
87500 -62500 0
93750 -62500 0
87500 -56250 0
93750 -56250 0
93750 -62500 0
100000 -62500 0
93750 -56250 0
100000 -56250 0
87500 -56250 0
93750 -56250 0
87500 -50000 0
93750 -50000 0
93750 -56250 0
100000 -56250 0
93750 -50000 0
100000 -50000 0
56250 -50000 0
62500 -50000 0
56250 -43750 0
62500 -43750 0
50000 -43750 0
56250 -43750 0
50000 -37500 0
56250 -37500 0
62500 -50000 0
68750 -50000 0
62500 -43750 0
68750 -43750 0
68750 -50000 0
75000 -50000 0
68750 -43750 0
75000 -43750 0
75000 -50000 0
81250 -50000 0
75000 -43750 0
81250 -43750 0
81250 -50000 0
87500 -50000 0
81250 -43750 0
87500 -43750 0
75000 -43750 0
81250 -43750 0
75000 -37500 0
81250 -37500 0
118750 -100000 0
125000 -100000 0
118750 -93750 0
125000 -93750 0
118750 -87500 0
125000 -87500 0
118750 -81250 0
125000 -81250 0
100000 -68750 0
106250 -68750 0
100000 -62500 0
106250 -62500 0
106250 -68750 0
112500 -68750 0
106250 -62500 0
112500 -62500 0
118750 -25000 0
125000 -25000 0
118750 -18750 0
125000 -18750 0
118750 -18750 0
125000 -18750 0
118750 -12500 0
125000 -12500 0
118750 -6250 0
125000 -6250 0
118750 0 0
125000 0 0
106250 -37500 0
112500 -37500 0
106250 -31250 0
112500 -31250 0
112500 -37500 0
118750 -37500 0
112500 -31250 0
118750 -31250 0
118750 -37500 0
125000 -37500 0
118750 -31250 0
125000 -31250 0
112500 -31250 0
118750 -31250 0
112500 -25000 0
118750 -25000 0
118750 -31250 0
125000 -31250 0
118750 -25000 0
125000 -25000 0
87500 -50000 0
93750 -50000 0
87500 -43750 0
93750 -43750 0
93750 -50000 0
100000 -50000 0
93750 -43750 0
100000 -43750 0
87500 -43750 0
93750 -43750 0
87500 -37500 0
93750 -37500 0
93750 -43750 0
100000 -43750 0
93750 -37500 0
100000 -37500 0
87500 -37500 0
93750 -37500 0
87500 -31250 0
93750 -31250 0
93750 -37500 0
100000 -37500 0
93750 -31250 0
100000 -31250 0
87500 -31250 0
93750 -31250 0
87500 -25000 0
93750 -25000 0
93750 -31250 0
100000 -31250 0
93750 -25000 0
100000 -25000 0
100000 -87500 0
106250 -87500 0
100000 -81250 0
106250 -81250 0
106250 -87500 0
112500 -87500 0
106250 -81250 0
112500 -81250 0
100000 -81250 0
106250 -81250 0
100000 -75000 0
106250 -75000 0
106250 -81250 0
112500 -81250 0
106250 -75000 0
112500 -75000 0
125000 -100000 0
131250 -100000 0
125000 -93750 0
131250 -93750 0
131250 -100000 0
137500 -100000 0
131250 -93750 0
137500 -93750 0
125000 -93750 0
131250 -93750 0
125000 -87500 0
131250 -87500 0
131250 -93750 0
137500 -93750 0
131250 -87500 0
137500 -87500 0
137500 -100000 0
143750 -100000 0
137500 -93750 0
143750 -93750 0
143750 -100000 0
150000 -100000 0
143750 -93750 0
150000 -93750 0
137500 -93750 0
143750 -93750 0
137500 -87500 0
143750 -87500 0
143750 -93750 0
150000 -93750 0
143750 -87500 0
150000 -87500 0
125000 -87500 0
131250 -87500 0
125000 -81250 0
131250 -81250 0
131250 -87500 0
137500 -87500 0
131250 -81250 0
137500 -81250 0
125000 -81250 0
131250 -81250 0
125000 -75000 0
131250 -75000 0
131250 -81250 0
137500 -81250 0
131250 -75000 0
137500 -75000 0
137500 -87500 0
143750 -87500 0
137500 -81250 0
143750 -81250 0
143750 -87500 0
150000 -87500 0
143750 -81250 0
150000 -81250 0
137500 -81250 0
143750 -81250 0
137500 -75000 0
143750 -75000 0
143750 -81250 0
150000 -81250 0
143750 -75000 0
150000 -75000 0
112500 -75000 0
118750 -75000 0
112500 -68750 0
118750 -68750 0
118750 -75000 0
125000 -75000 0
118750 -68750 0
125000 -68750 0
112500 -68750 0
118750 -68750 0
112500 -62500 0
118750 -62500 0
118750 -68750 0
125000 -68750 0
118750 -62500 0
125000 -62500 0
100000 -62500 0
106250 -62500 0
100000 -56250 0
106250 -56250 0
106250 -62500 0
112500 -62500 0
106250 -56250 0
112500 -56250 0
100000 -56250 0
106250 -56250 0
100000 -50000 0
106250 -50000 0
106250 -56250 0
112500 -56250 0
106250 -50000 0
112500 -50000 0
112500 -62500 0
118750 -62500 0
112500 -56250 0
118750 -56250 0
118750 -62500 0
125000 -62500 0
118750 -56250 0
125000 -56250 0
112500 -56250 0
118750 -56250 0
112500 -50000 0
118750 -50000 0
118750 -56250 0
125000 -56250 0
118750 -50000 0
125000 -50000 0
100000 -25000 0
106250 -25000 0
100000 -18750 0
106250 -18750 0
106250 -25000 0
112500 -25000 0
106250 -18750 0
112500 -18750 0
100000 -18750 0
106250 -18750 0
100000 -12500 0
106250 -12500 0
106250 -18750 0
112500 -18750 0
106250 -12500 0
112500 -12500 0
100000 -12500 0
106250 -12500 0
100000 -6250 0
106250 -6250 0
106250 -12500 0
112500 -12500 0
106250 -6250 0
112500 -6250 0
100000 -6250 0
106250 -6250 0
100000 0 0
106250 0 0
106250 -6250 0
112500 -6250 0
106250 0 0
112500 0 0
150000 -100000 0
156250 -100000 0
150000 -93750 0
156250 -93750 0
156250 -100000 0
162500 -100000 0
156250 -93750 0
162500 -93750 0
150000 -93750 0
156250 -93750 0
150000 -87500 0
156250 -87500 0
156250 -93750 0
162500 -93750 0
156250 -87500 0
162500 -87500 0
150000 -87500 0
156250 -87500 0
150000 -81250 0
156250 -81250 0
156250 -87500 0
162500 -87500 0
156250 -81250 0
162500 -81250 0
150000 -81250 0
156250 -81250 0
150000 -75000 0
156250 -75000 0
156250 -81250 0
162500 -81250 0
156250 -75000 0
162500 -75000 0
100000 -50000 0
106250 -50000 0
100000 -43750 0
106250 -43750 0
106250 -50000 0
112500 -50000 0
106250 -43750 0
112500 -43750 0
100000 -43750 0
106250 -43750 0
100000 -37500 0
106250 -37500 0
106250 -43750 0
112500 -43750 0
106250 -37500 0
112500 -37500 0
137500 -25000 0
143750 -25000 0
137500 -18750 0
143750 -18750 0
143750 -25000 0
150000 -25000 0
143750 -18750 0
150000 -18750 0
137500 -18750 0
143750 -18750 0
137500 -12500 0
143750 -12500 0
143750 -18750 0
150000 -18750 0
143750 -12500 0
150000 -12500 0
125000 -12500 0
131250 -12500 0
125000 -6250 0
131250 -6250 0
131250 -12500 0
137500 -12500 0
131250 -6250 0
137500 -6250 0
125000 -6250 0
131250 -6250 0
125000 0 0
131250 0 0
131250 -6250 0
137500 -6250 0
131250 0 0
137500 0 0
137500 -12500 0
143750 -12500 0
137500 -6250 0
143750 -6250 0
143750 -12500 0
150000 -12500 0
143750 -6250 0
150000 -6250 0
137500 -6250 0
143750 -6250 0
137500 0 0
143750 0 0
143750 -6250 0
150000 -6250 0
143750 0 0
150000 0 0
125000 -37500 0
131250 -37500 0
125000 -31250 0
131250 -31250 0
131250 -37500 0
137500 -37500 0
131250 -31250 0
137500 -31250 0
125000 -31250 0
131250 -31250 0
125000 -25000 0
131250 -25000 0
131250 -31250 0
137500 -31250 0
131250 -25000 0
137500 -25000 0
137500 -37500 0
143750 -37500 0
137500 -31250 0
143750 -31250 0
143750 -37500 0
150000 -37500 0
143750 -31250 0
150000 -31250 0
137500 -31250 0
143750 -31250 0
137500 -25000 0
143750 -25000 0
143750 -31250 0
150000 -31250 0
143750 -25000 0
150000 -25000 0
150000 -25000 0
156250 -25000 0
150000 -18750 0
156250 -18750 0
156250 -25000 0
162500 -25000 0
156250 -18750 0
162500 -18750 0
150000 -18750 0
156250 -18750 0
150000 -12500 0
156250 -12500 0
156250 -18750 0
162500 -18750 0
156250 -12500 0
162500 -12500 0
162500 -25000 0
168750 -25000 0
162500 -18750 0
168750 -18750 0
168750 -25000 0
175000 -25000 0
168750 -18750 0
175000 -18750 0
162500 -18750 0
168750 -18750 0
162500 -12500 0
168750 -12500 0
168750 -18750 0
175000 -18750 0
168750 -12500 0
175000 -12500 0
150000 -12500 0
156250 -12500 0
150000 -6250 0
156250 -6250 0
156250 -12500 0
162500 -12500 0
156250 -6250 0
162500 -6250 0
150000 -6250 0
156250 -6250 0
150000 0 0
156250 0 0
156250 -6250 0
162500 -6250 0
156250 0 0
162500 0 0
0 -100000 0
3125 -100000 0
0 -96875 0
3125 -96875 0
3125 -100000 0
6250 -100000 0
3125 -96875 0
6250 -96875 0
0 -96875 0
3125 -96875 0
0 -93750 0
3125 -93750 0
3125 -96875 0
6250 -96875 0
3125 -93750 0
[...]
POINT_DATA 18272
SCALARS velocity double 1
LOOKUP_TABLE default
0.226343 0.238901 0.226316 0.238881 0.226316 0.238881 0.226235 0.238822 0.175381 0.188029 0.174768 0.187614 0.187253 0.200152 0.187013 0.19999 0.188029 0.200679 0.187614 0.200397 0.200679 0.213329 0.200397 0.213135 0.225647 0.238385 0.225618 0.238365 0.188791 0.201196 0.188444 0.20096 0.201196 0.213686 0.20096 0.213523 0.188444 0.20096 0.188029 0.200679 0.20096 0.213523 0.200679 0.213329 0.238901 0.251503 0.238881 0.251486 0.251503 0.264139 0.251486 0.264123 0.238881 0.251486 0.238822 0.251439 0.251486 0.264123 0.251439 0.26408 0.213686 0.226235 0.213523 0.226118 0.226235 0.238822 0.226118 0.238735 0.213523 0.226118 0.213329 0.225981 0.226118 0.238735 0.225981 0.238633 0.238822 0.251439 0.238735 0.251368 0.251439 0.26408 0.251368 0.264015 0.238735 0.251368 0.238633 0.251285 0.251368 0.264015 0.251285 0.263938 0.213329 0.225981 0.213135 0.225844 0.225981 0.238633 0.225844 0.238531 0.213135 0.225844 0.212968 0.225728 0.225844 0.238531 0.225728 0.238443 0.238633 0.251285 0.238531 0.251202 0.251285 0.263938 0.251202 0.263861 0.238531 0.251202 0.238443 0.251132 0.251202 0.263861 0.251132 0.263796 0.238443 0.251132 0.238385 0.251085 0.251132 0.263796 0.251085 0.263752 0.238385 0.251085 0.238365 0.251068 0.251085 0.263752 0.251068 0.263737 0.152548 0.158431 0.15204 0.158011 0.103998 0.110501 0.10118 0.108223 0.138553 0.144655 0.13755 0.143831 0.144655 0.150807 0.143831 0.150128 0.151453 0.157523 0.150807 0.156993 0.157523 0.163644 0.156993 0.163206 0.150807 0.156993 0.150128 0.156434 0.156993 0.163206 0.156434 0.162746 0.118882 0.12506 0.117023 0.123541 0.110501 0.117023 0.108223 0.115169 0.12506 0.131288 0.123541 0.130044 0.131288 0.13755 0.130044 0.136527 0.13755 0.143831 0.136527 0.142993 0.143831 0.150128 0.142993 0.14944 0.136527 0.142993 0.135523 0.142173 0.183011 0.189106 0.182985 0.189086 0.182911 0.189025 0.18279 0.188927 0.164046 0.170133 0.163644 0.169803 0.170133 0.176265 0.169803 0.175991 0.180766 0.187253 0.180598 0.187133 0.180598 0.187133 0.180475 0.187013 0.180395 0.186948 0.180366 0.186928 0.168314 0.174768 0.16797 0.174484 0.174768 0.181191 0.174484 0.180967 0.181191 0.187614 0.180967 0.187419 0.174484 0.180967 0.174238 0.180766 0.180967 0.187419 0.180766 0.187253 0.150128 0.156434 0.14944 0.155868 0.156434 0.162746 0.155868 0.162282 0.14944 0.155868 0.148766 0.155318 0.155868 0.162282 0.155318 0.161832 0.148766 0.155318 0.148139 0.154806 0.155318 0.161832 0.154806 0.161411 0.148139 0.154806 0.147585 0.154356 0.154806 0.161411 0.154356 0.161042 0.16489 0.170831 0.164681 0.170658 0.170831 0.176843 0.170658 0.1767 0.164681 0.170658 0.164395 0.170422 0.170658 0.1767 0.170422 0.176504 0.189106 0.195244 0.189086 0.195227 0.195244 0.201415 0.195227 0.201401 0.189086 0.195227 0.189025 0.195177 0.195227 0.201401 0.195177 0.20136 0.201415 0.207615 0.201401 0.207603 0.207615 0.213838 0.207603 0.213828 0.201401 0.207603 0.20136 0.207569 0.207603 0.213828 0.207569 0.213799 0.189025 0.195177 0.188927 0.195095 0.195177 0.20136 0.195095 0.201293 0.188927 0.195095 0.188791 0.194994 0.195095 0.201293 0.194994 0.201196 0.20136 0.207569 0.201293 0.207512 0.207569 0.213799 0.207512 0.213753 0.201293 0.207512 0.201196 0.207441 0.207512 0.213753 0.207441 0.213686 0.176504 0.182626 0.176265 0.182431 0.182626 0.188791 0.182431 0.188618 0.176265 0.182431 0.175991 0.182205 0.182431 0.188618 0.182205 0.188444 0.163644 0.169803 0.163206 0.169441 0.169803 0.175991 0.169441 0.175694 0.163206 0.169441 0.162746 0.169064 0.169441 0.175694 0.169064 0.175381 0.175991 0.182205 0.175694 0.181961 0.182205 0.188444 0.181961 0.188236 0.175694 0.181961 0.175381 0.181705 0.181961 0.188236 0.181705 0.188029 0.161042 0.167668 0.160732 0.167415 0.167668 0.174238 0.167415 0.174032 0.160732 0.167415 0.160504 0.167228 0.167415 0.174032 0.167228 0.173879 0.160504 0.167228 0.160362 0.167112 0.167228 0.173879 0.167112 0.173784 0.160362 0.167112 0.160314 0.167073 0.167112 0.173784 0.167073 0.173752 0.213838 0.22008 0.213828 0.220073 0.22008 0.226343 0.220073 0.22633 0.213828 0.220073 0.213799 0.220048 0.220073 0.22633 0.220048 0.226316 0.213799 0.220048 0.213753 0.220009 0.220048 0.226316 0.220009 0.226276 0.213753 0.220009 0.213686 0.219961 0.220009 0.226276 0.219961 0.226235 0.162746 0.169064 0.162282 0.168683 0.169064 0.175381 0.168683 0.175075 0.162282 0.168683 0.161832 0.168314 0.168683 0.175075 0.168314 0.174768 0.200152 0.206571 0.200071 0.206494 0.206571 0.212968 0.206494 0.212904 0.200071 0.206494 0.19999 0.206436 0.206494 0.212904 0.206436 0.212857 0.187013 0.193502 0.186948 0.193463 0.193502 0.19999 0.193463 0.199944 0.186948 0.193463 0.186928 0.193446 0.193463 0.199944 0.193446 0.19993 0.19999 0.206436 0.199944 0.206398 0.206436 0.212857 0.206398 0.212827 0.199944 0.206398 0.19993 0.206386 0.206398 0.212827 0.206386 0.212817 0.187614 0.194005 0.187419 0.193851 0.194005 0.200397 0.193851 0.200263 0.187419 0.193851 0.187253 0.193703 0.193851 0.200263 0.193703 0.200152 0.200397 0.206766 0.200263 0.206663 0.206766 0.213135 0.206663 0.213052 0.200263 0.206663 0.200152 0.206571 0.206663 0.213052 0.206571 0.212968 0.212968 0.219348 0.212904 0.219299 0.219348 0.225728 0.219299 0.225679 0.212904 0.219299 0.212857 0.21926 0.219299 0.225679 0.21926 0.225647 0.225728 0.232086 0.225679 0.23205 0.232086 0.238443 0.23205 0.238414 0.225679 0.23205 0.225647 0.232016 0.23205 0.238414 0.232016 0.238385 0.212857 0.21926 0.212827 0.219236 0.21926 0.225647 0.219236 0.225632 0.212827 0.219236 0.212817 0.219228 0.219236 0.225632 0.219228 0.225618 0.103628 0.103712 0.103543 0.103628 0.103712 0.103964 0.103628 0.103881 0.103543 0.103628 0.10329 0.103375 0.103628 0.103881 0.103375 0.10363 0.103964 0.104383 0.103881 0.104301 0.104383 0.104965 0.104301 0.104885 0.103881 0.104301 0.10363 0.104054 0.104301 0.104885 0.104054 0.104643 0.10329 0.103375 0.102865 0.102952 0.103375 0.10363 0.102952 0.103211 0.102865 0.102952 0.102267 0.102355 0.102952 0.103211 0.102355 0.102621 0.10363 0.104054 0.103211 0.103642 0.104054 0.104643 0.103642 0.10424 0.103211 0.103642 0.102621 0.103061 0.103642 0.10424 0.103061 0.103673 0.104965 0.105707 0.104885 0.105629 0.105707 0.106606 0.105629 0.10653 0.104885 0.105629 0.104643 0.105394 0.105629 0.10653 0.105394 0.106303 0.106606 0.107655 0.10653 0.107582 0.107655 0.108851 0.107582 0.108781 0.10653 0.107582 0.106303 0.107363 0.107582 0.108781 0.107363 0.10857 0.104643 0.105394 0.10424 0.105002 0.105394 0.106303 0.105002 0.105923 0.10424 0.105002 0.103673 0.104451 0.105002 0.105923 0.104451 0.10539 0.106303 0.107363 0.105923 0.106998 0.107363 0.10857 0.106998 0.10822 0.105923 0.106998 0.10539 0.106485 0.106998 0.10822 0.106485 0.107729 0.102267 0.102355 0.101492 0.101582 0.102355 0.102621 0.101582 0.101852 0.102621 0.103061 0.101852 0.102311 0.103061 0.103673 0.102311 0.102939 0.102311 0.102939 0.101385 0.102034 0.103673 0.104451 0.102939 0.103737 0.104451 0.10539 0.103737 0.1047 0.102939 0.103737 0.102034 0.102859 0.103737 0.1047 0.102859 0.103852 0.10539 0.106485 0.1047 0.105822 0.106485 0.107729 0.105822 0.107096 0.1047 0.105822 0.103852 0.105008 0.105822 0.107096 0.105008 0.106318 0.102034 0.102859 0.100954 0.101811 0.102859 0.103852 0.101811 0.102842 0.101811 0.102842 0.100588 0.101665 0.103852 0.105008 0.102842 0.104039 0.105008 0.106318 0.104039 0.105394 0.102842 0.104039 0.101665 0.102913 0.104039 0.105394 0.102913 0.104322 0.108851 0.110191 0.108781 0.110117 0.108781 0.110117 0.10857 0.109916 0.110117 0.111582 0.109916 0.111396 0.111582 0.113182 0.111396 0.113004 0.10857 0.109916 0.10822 0.109583 0.109916 0.111396 0.109583 0.111081 0.10822 0.109583 0.107729 0.109116 0.109583 0.111081 0.109116 0.110637 0.111396 0.113004 0.111081 0.112706 0.111081 0.112706 0.110637 0.112287 0.110973 0.113878 0.109759 0.112775 0.134661 0.137212 0.134631 0.137185 0.137212 0.139819 0.137185 0.139794 0.139819 0.142476 0.139794 0.142454 0.107729 0.109116 0.107096 0.108513 0.109116 0.110637 0.108513 0.110066 0.107096 0.108513 0.106318 0.107774 0.108513 0.110066 0.107774 0.109367 0.110637 0.112287 0.110066 0.111748 0.110066 0.111748 0.109367 0.111089 0.106318 0.107774 0.105394 0.106897 0.107774 0.109367 0.106897 0.108539 0.105394 0.106897 0.104322 0.105882 0.106897 0.108539 0.105882 0.107581 0.109367 0.111089 0.108539 0.11031 0.108539 0.11031 0.107581 0.109411 0.13627 0.138954 0.135938 0.13865 0.101665 0.102913 0.100317 0.101626 0.102913 0.104322 0.101626 0.103101 0.101626 0.103101 0.10018 0.101725 0.10018 0.101725 0.0985542 0.100193 0.0985542 0.100193 0.0967497 0.0985028 0.104322 0.105882 0.103101 0.104727 0.105882 0.107581 0.104727 0.106494 0.103101 0.104727 0.101725 0.10343 0.104727 0.106494 0.10343 0.105278 0.107581 0.109411 0.106494 0.108392 0.106494 0.108392 0.105278 0.107255 0.101725 0.10343 0.100193 0.101991 0.10343 0.105278 0.101991 0.103931 0.100193 0.101991 0.0985028 0.100411 0.101991 0.103931 0.100411 0.102458 0.105278 0.107255 0.103931 0.106001 0.103931 0.106001 0.102458 0.104628 0.114961 0.116785 0.114903 0.116732 0.116785 0.118717 0.116732 0.118667 0.114903 0.116732 0.114733 0.116573 0.116732 0.118667 0.116573 0.118519 0.125801 0.128555 0.125103 0.127918 0.118721 0.121524 0.117789 0.120674 0.0985028 0.100411 0.0966601 0.0986889 0.100411 0.102458 0.0986889 0.100863 0.0966601 0.0986889 0.0946495 0.0968267 0.0986889 0.100863 0.0968267 0.0991406 0.0946495 0.0968267 0.0924844 0.0948273 0.0968267 0.0991406 0.0948273 0.0973001 0.0924844 0.0948273 0.0901585 0.0927 0.122332 0.125103 0.121524 0.124366 0.125103 0.127918 0.124366 0.127244 0.121524 0.124366 0.120674 0.123593 0.124366 0.127244 0.123593 0.12654 0.114944 0.117789 0.113878 0.116819 0.117789 0.120674 0.116819 0.119792 0.113878 0.116819 0.112775 0.115818 0.116819 0.119792 0.115818 0.118882 0.0824091 0.0856992 0.0796397 0.0832396 0.0856992 0.0890432 0.0832396 0.0868485 0.0992684 0.102315 0.0975477 0.100764 0.102315 0.105402 0.100764 0.103998 0.0940472 0.0976232 0.0923114 0.0960744 0.0976232 0.10118 0.0960744 0.0997898 0.10118 0.104701 0.0997898 0.103466 0.104701 0.108223 0.103466 0.107101 0.108223 0.111696 0.107101 0.110703 0.111696 0.115169 0.110703 0.114266 0.115169 0.11861 0.114266 0.117799 0.11861 0.12203 0.117799 0.121301 0.114266 0.117799 0.113399 0.11702 0.117799 0.121301 0.11702 0.1206 0.11702 0.1206 0.11628 0.119935 0.135975 0.139577 0.135853 0.139465 0.0877572 0.0901585 0.0850656 0.0876997 0.0850656 0.0876997 0.082198 0.0851049 0.0760686 0.0796397 0.0728947 0.0768458 0.143272 0.146779 0.143134 0.146655 0.139577 0.143134 0.139465 0.143035 0.143134 0.146655 0.143035 0.146566 0.0796397 0.0832396 0.0768458 0.080772 0.0832396 0.0868485 0.080772 0.0846594 0.132107 0.135779 0.132078 0.135753 0.135779 0.139398 0.135753 0.139377 0.0740762 0.0783372 0.0714016 0.0759946 0.0804442 0.0847766 0.0785027 0.0830568 0.0847766 0.0889946 0.0830568 0.0874736 0.139465 0.143035 0.139398 0.142975 0.143035 0.146566 0.142975 0.146512 0.139398 0.142975 0.139377 0.142955 0.142975 0.146512 0.142955 0.146494 0.0830568 0.0874736 0.0814766 0.0860722 0.0874736 0.0917678 0.0860722 0.0905218 0.0860722 0.0905218 0.0848093 0.0894053 0.0905218 0.0948438 0.0894053 0.0938502 0.0848093 0.0894053 0.0837273 0.0884336 0.0894053 0.0938502 0.0884336 0.0929841 0.0884336 0.0929841 0.0876151 0.0922598 0.0938502 0.0981666 0.0929841 0.0973942 0.0929841 0.0973942 0.0922598 0.0967479 0.0973942 0.10168 0.0967479 0.101098 0.0876151 0.0922598 0.0869821 0.0916861 0.0922598 0.0967479 0.0916861 0.0962353 0.0967479 0.101098 0.0962353 0.100646 0.0916861 0.0962353 0.0912651 0.0958647 0.0962353 0.100646 0.0958647 0.100315 0.0912651 0.0958647 0.0910164 0.0956392 0.0958647 0.100315 0.0956392 0.100114 0.0910164 0.0956392 0.0909329 0.0955641 0.0956392 0.100114 0.0955641 0.100041 0.118717 0.120748 0.118667 0.120701 0.120748 0.122871 0.120701 0.122828 0.118667 0.120701 0.118519 0.120563 0.120701 0.122828 0.120563 0.122699 0.114733 0.116573 0.114451 0.116308 0.116573 0.118519 0.116308 0.118271 0.114451 0.116308 0.114056 0.115938 0.116308 0.118271 0.115938 0.117925 0.118519 0.120563 0.118271 0.120332 0.120563 0.122699 0.120332 0.122485 0.118271 0.120332 0.117925 0.12001 0.120332 0.122485 0.12001 0.122185 0.114056 0.115938 0.11355 0.115464 0.115938 0.117925 0.115464 0.117482 0.11355 0.115464 0.112931 0.114885 0.115464 0.117482 0.114885 0.116942 0.117925 0.12001 0.117482 0.119597 0.12001 0.122185 0.119597 0.121802 0.117482 0.119597 0.116942 0.119095 0.119597 0.121802 0.119095 0.121336 0.100646 0.104932 0.100315 0.104632 0.112931 0.114885 0.112201 0.114203 0.114885 0.116942 0.114203 0.116307 0.112201 0.114203 0.111359 0.113418 0.114203 0.116307 0.113418 0.115577 0.100315 0.104632 0.100114 0.104458 0.116942 0.119095 0.116307 0.118505 0.119095 0.121336 0.118505 0.12079 0.116307 0.118505 0.115577 0.117829 0.118505 0.12079 0.117829 0.120164 0.111359 0.113418 0.110408 0.112533 0.113418 0.115577 0.112533 0.114756 0.110408 0.112533 0.109349 0.11155 0.112533 0.114756 0.11155 0.113846 0.115577 0.117829 0.114756 0.117069 0.117829 0.120164 0.117069 0.119462 0.114756 0.117069 0.113846 0.116228 0.117069 0.119462 0.116228 0.118687 0.109349 0.11155 0.108185 0.110472 0.11155 0.113846 0.110472 0.11285 0.108185 0.110472 0.106919 0.109302 0.110472 0.11285 0.109302 0.111773 0.113846 0.116228 0.11285 0.11531 0.116228 0.118687 0.11531 0.117842 0.11285 0.11531 0.111773 0.114319 0.11531 0.117842 0.114319 0.116933 0.106919 0.109302 0.105555 0.108047 0.109302 0.111773 0.108047 0.110619 0.105555 0.108047 0.104099 0.106712 0.108047 0.110619 0.106712 0.109397 0.111773 0.114319 0.110619 0.113262 0.114319 0.116933 0.113262 0.115967 0.110619 0.113262 0.109397 0.112142 0.113262 0.115967 0.112142 0.114944 0.104099 0.106712 0.10256 0.105305 0.106712 0.109397 0.105305 0.108115 0.10256 0.105305 0.100944 0.103834 0.105305 0.108115 0.103834 0.106777 0.122871 0.125081 0.122828 0.125041 0.125081 0.127371 0.125041 0.127334 0.122828 0.125041 0.122699 0.124921 0.125041 0.127334 0.124921 0.127223 0.127371 0.129734 0.127334 0.1297 0.129734 0.132166 0.1297 0.132136 0.127334 0.1297 0.127223 0.129597 0.1297 0.132136 0.129597 0.132039 0.122699 0.124921 0.122485 0.124722 0.124921 0.127223 0.124722 0.127038 0.122485 0.124722 0.122185 0.124445 0.124722 0.127038 0.124445 0.126782 0.127223 0.129597 0.127038 0.129427 0.129597 0.132039 0.129427 0.131882 0.127038 0.129427 0.126782 0.12919 0.129427 0.131882 0.12919 0.131664 0.132039 0.134542 0.131882 0.1344 0.134542 0.137107 0.1344 0.136975 0.131882 0.1344 0.131664 0.134197 0.1344 0.136975 0.134197 0.136789 0.122185 0.124445 0.121802 0.12409 0.124445 0.126782 0.12409 0.126454 0.121802 0.12409 0.121336 0.123659 0.12409 0.126454 0.123659 0.126056 0.126782 0.12919 0.126454 0.128888 0.12919 0.131664 0.128888 0.131388 0.126454 0.128888 0.126056 0.128521 0.128888 0.131388 0.128521 0.131049 0.121336 0.123659 0.12079 0.123153 0.123659 0.126056 0.123153 0.125589 0.12079 0.123153 0.120164 0.122576 0.123153 0.125589 0.122576 0.125057 0.126056 0.128521 0.125589 0.128091 0.128521 0.131049 0.128091 0.130654 0.125589 0.128091 0.125057 0.127598 0.128091 0.130654 0.127598 0.130203 0.158431 0.161402 0.158221 0.161219 0.161402 0.164395 0.161219 0.164229 0.158221 0.161219 0.158011 0.161019 0.161219 0.164229 0.161019 0.164046 0.15204 0.155025 0.151757 0.154759 0.155025 0.158011 0.154759 0.157777 0.151757 0.154759 0.151453 0.154488 0.154759 0.157777 0.154488 0.157523 0.158011 0.161019 0.157777 0.160806 0.161019 0.164046 0.160806 0.163845 0.157777 0.160806 0.157523 0.160584 0.160806 0.163845 0.160584 0.163644 0.142476 0.145178 0.142454 0.145158 0.145178 0.147921 0.145158 0.147902 0.142454 0.145158 0.142389 0.145096 0.145158 0.147902 0.145096 0.147846 0.147921 0.150701 0.147902 0.150684 0.150701 0.153515 0.150684 0.1535 0.147902 0.150684 0.147846 0.150632 0.150684 0.1535 0.150632 0.153452 0.142389 0.145096 0.142277 0.144995 0.145096 0.147846 0.144995 0.147752 0.142277 0.144995 0.142122 0.144852 0.144995 0.147752 0.144852 0.147622 0.147846 0.150632 0.147752 0.150547 0.150632 0.153452 0.150547 0.153374 0.147752 0.150547 0.147622 0.150428 0.150547 0.153374 0.150428 0.153266 0.153515 0.156362 0.1535 0.156347 0.156362 0.159237 0.156347 0.159223 0.1535 0.156347 0.153452 0.156304 0.156347 0.159223 0.156304 0.159184 0.159237 0.162138 0.159223 0.162126 0.162138 0.165063 0.162126 0.165052 0.159223 0.162126 0.159184 0.16209 0.162126 0.165052 0.16209 0.16502 0.153452 0.156304 0.153374 0.156233 0.156304 0.159184 0.156233 0.159119 0.153374 0.156233 0.153266 0.156133 0.156233 0.159119 0.156133 0.159028 0.159184 0.16209 0.159119 0.162031 0.16209 0.16502 0.162031 0.164966 0.159119 0.162031 0.159028 0.161947 0.162031 0.164966 0.161947 0.16489 0.142122 0.144852 0.141924 0.144671 0.144852 0.147622 0.144671 0.147457 0.141924 0.144671 0.141685 0.144453 0.144671 0.147457 0.144453 0.147257 0.147622 0.150428 0.147457 0.150277 0.150428 0.153266 0.150277 0.153128 0.147457 0.150277 0.147257 0.150094 0.150277 0.153128 0.150094 0.152962 0.141685 0.144453 0.141406 0.144197 0.144453 0.147257 0.144197 0.147024 0.141406 0.144197 0.141088 0.143908 0.144197 0.147024 0.143908 0.146759 0.147257 0.150094 0.147024 0.149881 0.150094 0.152962 0.149881 0.152769 0.147024 0.149881 0.146759 0.149639 0.149881 0.152769 0.149639 0.152548 0.120164 0.122576 0.119462 0.121929 0.122576 0.125057 0.121929 0.124463 0.119462 0.121929 0.118687 0.121216 0.121929 0.124463 0.121216 0.123807 0.118687 0.121216 0.117842 0.12044 0.121216 0.123807 0.12044 0.123096 0.117842 0.12044 0.116933 0.119604 0.12044 0.123096 0.119604 0.122332 0.153266 0.156133 0.153128 0.156008 0.156133 0.159028 0.156008 0.158913 0.153128 0.156008 0.152962 0.155856 0.156008 0.158913 0.155856 0.158775 0.159028 0.161947 0.158913 0.161842 0.161947 0.16489 0.161842 0.164786 0.158913 0.161842 0.158775 0.161715 0.161842 0.164786 0.161715 0.164681 0.152962 0.155856 0.152769 0.15568 0.155856 0.158775 0.15568 0.158615 0.152769 0.15568 0.152548 0.155489 0.15568 0.158615 0.155489 0.158431 0.158775 0.161715 0.158615 0.161569 0.161715 0.164681 0.161569 0.164538 0.158615 0.161569 0.158431 0.161402 0.161569 0.164538 0.161402 0.164395 0.120674 0.123593 0.119792 0.122791 0.123593 0.12654 0.122791 0.125811 0.119792 0.122791 0.118882 0.121971 0.122791 0.125811 0.121971 0.12506 0.130203 0.132855 0.129703 0.132398 0.132855 0.135558 0.132398 0.135138 0.129703 0.132398 0.129153 0.131894 0.132398 0.135138 0.131894 0.134678 0.135558 0.138303 0.135138 0.137919 0.138303 0.141088 0.137919 0.140737 0.135138 0.137919 0.134678 0.137498 0.137919 0.140737 0.137498 0.140352 0.129153 0.131894 0.128555 0.131349 0.131894 0.134678 0.131349 0.13418 0.128555 0.131349 0.127918 0.130768 0.131349 0.13418 0.130768 0.13365 0.134678 0.137498 0.13418 0.137045 0.137498 0.140352 0.137045 0.139939 0.13418 0.137045 0.13365 0.136561 0.137045 0.139939 0.136561 0.139498 0.127918 0.130768 0.127244 0.130154 0.130768 0.13365 0.130154 0.133091 0.127244 0.130154 0.12654 0.129513 0.130154 0.133091 0.129513 0.132508 0.13365 0.136561 0.133091 0.136052 0.136561 0.139498 0.136052 0.139036 0.133091 0.136052 0.132508 0.135521 0.136052 0.139036 0.135521 0.138553 0.12654 0.129513 0.125811 0.12885 0.129513 0.132508 0.12885 0.131906 0.125811 0.12885 0.12506 0.128174 0.12885 0.131906 0.128174 0.131288 0.132508 0.135521 0.131906 0.134974 0.135521 0.138553 0.134974 0.138051 0.131906 0.134974 0.131288 0.134419 0.134974 0.138051 0.134419 0.13755 0.0953588 0.0981096 0.0933252 0.0962657 0.0981096 0.100944 0.0962657 0.0992684 0.0933252 0.0962657 0.0912129 0.0943597 0.0962657 0.0992684 0.0943597 0.0975477 0.0912129 0.0943597 0.0890432 0.0924142 0.0943597 0.0975477 0.0924142 0.0958005 0.0890432 0.0924142 0.0868485 0.0904539 0.0924142 0.0958005 0.0904539 0.0940472 0.106777 0.109759 0.105402 0.108514 0.109759 0.112775 0.108514 0.111647 0.105402 0.108514 0.103998 0.107249 0.108514 0.111647 0.107249 0.110501 0.0975477 0.100764 0.0958005 0.0991937 0.100764 0.103998 0.0991937 0.102589 0.0958005 0.0991937 0.0940472 0.0976232 0.0991937 0.102589 0.0976232 0.10118 0.0868485 0.0904539 0.0846594 0.0885066 0.090