# vtk DataFile Version 3.0
#This file was generated by the deal.II library on 2016/5/13 at 16:44:31
ASCII
DATASET UNSTRUCTURED_GRID

POINTS 76064 double
143750 -68750 0
150000 -68750 0
143750 -62500 0
150000 -62500 0
143750 -62500 0
150000 -62500 0
143750 -56250 0
150000 -56250 0
168750 -31250 0
175000 -31250 0
168750 -25000 0
175000 -25000 0
175000 -37500 0
181250 -37500 0
175000 -31250 0
181250 -31250 0
181250 -37500 0
187500 -37500 0
181250 -31250 0
187500 -31250 0
168750 -56250 0
175000 -56250 0
168750 -50000 0
175000 -50000 0
175000 -56250 0
181250 -56250 0
175000 -50000 0
181250 -50000 0
181250 -56250 0
187500 -56250 0
181250 -50000 0
187500 -50000 0
168750 -50000 0
175000 -50000 0
168750 -43750 0
175000 -43750 0
187500 -37500 0
193750 -37500 0
187500 -31250 0
193750 -31250 0
193750 -37500 0
200000 -37500 0
193750 -31250 0
200000 -31250 0
187500 -87500 0
193750 -87500 0
187500 -81250 0
193750 -81250 0
193750 -87500 0
200000 -87500 0
193750 -81250 0
200000 -81250 0
187500 -81250 0
193750 -81250 0
187500 -75000 0
193750 -75000 0
193750 -81250 0
200000 -81250 0
193750 -75000 0
200000 -75000 0
187500 -62500 0
193750 -62500 0
187500 -56250 0
193750 -56250 0
193750 -62500 0
200000 -62500 0
193750 -56250 0
200000 -56250 0
187500 -56250 0
193750 -56250 0
187500 -50000 0
193750 -50000 0
193750 -56250 0
200000 -56250 0
193750 -50000 0
200000 -50000 0
175000 -50000 0
181250 -50000 0
175000 -43750 0
181250 -43750 0
181250 -50000 0
187500 -50000 0
181250 -43750 0
187500 -43750 0
175000 -43750 0
181250 -43750 0
175000 -37500 0
181250 -37500 0
181250 -43750 0
187500 -43750 0
181250 -37500 0
187500 -37500 0
187500 -50000 0
193750 -50000 0
187500 -43750 0
193750 -43750 0
193750 -50000 0
200000 -50000 0
193750 -43750 0
200000 -43750 0
187500 -43750 0
193750 -43750 0
187500 -37500 0
193750 -37500 0
193750 -43750 0
200000 -43750 0
193750 -37500 0
200000 -37500 0
96875 -43750 0
100000 -43750 0
96875 -40625 0
100000 -40625 0
109375 -84375 0
112500 -84375 0
109375 -81250 0
112500 -81250 0
112500 -68750 0
115625 -68750 0
112500 -65625 0
115625 -65625 0
115625 -68750 0
118750 -68750 0
115625 -65625 0
118750 -65625 0
106250 -50000 0
109375 -50000 0
106250 -46875 0
109375 -46875 0
159375 -18750 0
162500 -18750 0
159375 -15625 0
162500 -15625 0
153125 -9375 0
156250 -9375 0
153125 -6250 0
156250 -6250 0
156250 -12500 0
159375 -12500 0
156250 -9375 0
159375 -9375 0
112500 -46875 0
115625 -46875 0
112500 -43750 0
115625 -43750 0
115625 -43750 0
118750 -43750 0
115625 -40625 0
118750 -40625 0
134375 -46875 0
137500 -46875 0
134375 -43750 0
137500 -43750 0
134375 -43750 0
137500 -43750 0
134375 -40625 0
137500 -40625 0
165625 -12500 0
168750 -12500 0
165625 -9375 0
168750 -9375 0
165625 -9375 0
168750 -9375 0
165625 -6250 0
168750 -6250 0
165625 -6250 0
168750 -6250 0
165625 -3125 0
168750 -3125 0
131250 -71875 0
134375 -71875 0
131250 -68750 0
134375 -68750 0
134375 -68750 0
137500 -68750 0
134375 -65625 0
137500 -65625 0
134375 -65625 0
137500 -65625 0
134375 -62500 0
137500 -62500 0
140625 -71875 0
143750 -71875 0
140625 -68750 0
143750 -68750 0
143750 -71875 0
146875 -71875 0
143750 -68750 0
146875 -68750 0
146875 -71875 0
150000 -71875 0
146875 -68750 0
150000 -68750 0
131250 -81250 0
134375 -81250 0
131250 -78125 0
134375 -78125 0
134375 -81250 0
137500 -81250 0
134375 -78125 0
137500 -78125 0
131250 -78125 0
134375 -78125 0
131250 -75000 0
134375 -75000 0
134375 -78125 0
137500 -78125 0
134375 -75000 0
137500 -75000 0
131250 -62500 0
134375 -62500 0
131250 -59375 0
134375 -59375 0
134375 -62500 0
137500 -62500 0
134375 -59375 0
137500 -59375 0
131250 -59375 0
134375 -59375 0
131250 -56250 0
134375 -56250 0
134375 -59375 0
137500 -59375 0
134375 -56250 0
137500 -56250 0
137500 -81250 0
140625 -81250 0
137500 -78125 0
140625 -78125 0
140625 -81250 0
143750 -81250 0
140625 -78125 0
143750 -78125 0
137500 -78125 0
140625 -78125 0
137500 -75000 0
140625 -75000 0
140625 -78125 0
143750 -78125 0
140625 -75000 0
143750 -75000 0
137500 -56250 0
140625 -56250 0
137500 -53125 0
140625 -53125 0
140625 -56250 0
143750 -56250 0
140625 -53125 0
143750 -53125 0
143750 -56250 0
146875 -56250 0
143750 -53125 0
146875 -53125 0
146875 -56250 0
150000 -56250 0
146875 -53125 0
150000 -53125 0
181250 -100000 0
184375 -100000 0
181250 -96875 0
184375 -96875 0
184375 -100000 0
187500 -100000 0
184375 -96875 0
187500 -96875 0
181250 -96875 0
184375 -96875 0
181250 -93750 0
184375 -93750 0
184375 -96875 0
187500 -96875 0
184375 -93750 0
187500 -93750 0
178125 -93750 0
181250 -93750 0
178125 -90625 0
181250 -90625 0
178125 -90625 0
181250 -90625 0
178125 -87500 0
181250 -87500 0
190625 -100000 0
193750 -100000 0
190625 -96875 0
193750 -96875 0
187500 -96875 0
190625 -96875 0
187500 -93750 0
190625 -93750 0
190625 -96875 0
193750 -96875 0
190625 -93750 0
193750 -93750 0
178125 -87500 0
181250 -87500 0
178125 -84375 0
181250 -84375 0
178125 -84375 0
181250 -84375 0
178125 -81250 0
181250 -81250 0
150000 -71875 0
153125 -71875 0
150000 -68750 0
153125 -68750 0
153125 -71875 0
156250 -71875 0
153125 -68750 0
156250 -68750 0
150000 -68750 0
153125 -68750 0
150000 -65625 0
153125 -65625 0
153125 -68750 0
156250 -68750 0
153125 -65625 0
156250 -65625 0
150000 -65625 0
153125 -65625 0
150000 -62500 0
153125 -62500 0
159375 -68750 0
162500 -68750 0
159375 -65625 0
162500 -65625 0
162500 -71875 0
165625 -71875 0
162500 -68750 0
165625 -68750 0
165625 -71875 0
168750 -71875 0
165625 -68750 0
168750 -68750 0
168750 -75000 0
171875 -75000 0
168750 -71875 0
171875 -71875 0
168750 -71875 0
171875 -71875 0
168750 -68750 0
171875 -68750 0
162500 -68750 0
165625 -68750 0
162500 -65625 0
165625 -65625 0
165625 -68750 0
168750 -68750 0
165625 -65625 0
168750 -65625 0
165625 -65625 0
168750 -65625 0
165625 -62500 0
168750 -62500 0
168750 -65625 0
171875 -65625 0
168750 -62500 0
171875 -62500 0
171875 -65625 0
175000 -65625 0
171875 -62500 0
175000 -62500 0
153125 -31250 0
156250 -31250 0
153125 -28125 0
156250 -28125 0
156250 -31250 0
159375 -31250 0
156250 -28125 0
159375 -28125 0
159375 -31250 0
162500 -31250 0
159375 -28125 0
162500 -28125 0
159375 -28125 0
162500 -28125 0
159375 -25000 0
162500 -25000 0
168750 -12500 0
171875 -12500 0
168750 -9375 0
171875 -9375 0
171875 -12500 0
175000 -12500 0
171875 -9375 0
175000 -9375 0
168750 -9375 0
171875 -9375 0
168750 -6250 0
171875 -6250 0
171875 -9375 0
175000 -9375 0
171875 -6250 0
175000 -6250 0
175000 -25000 0
178125 -25000 0
175000 -21875 0
178125 -21875 0
175000 -21875 0
178125 -21875 0
175000 -18750 0
178125 -18750 0
178125 -21875 0
181250 -21875 0
178125 -18750 0
181250 -18750 0
184375 -25000 0
187500 -25000 0
184375 -21875 0
187500 -21875 0
181250 -21875 0
184375 -21875 0
181250 -18750 0
184375 -18750 0
175000 -18750 0
178125 -18750 0
175000 -15625 0
178125 -15625 0
178125 -18750 0
181250 -18750 0
178125 -15625 0
181250 -15625 0
181250 -18750 0
184375 -18750 0
181250 -15625 0
184375 -15625 0
175000 -9375 0
178125 -9375 0
175000 -6250 0
178125 -6250 0
190625 -9375 0
193750 -9375 0
190625 -6250 0
193750 -6250 0
193750 -9375 0
196875 -9375 0
193750 -6250 0
196875 -6250 0
196875 -9375 0
200000 -9375 0
196875 -6250 0
200000 -6250 0
190625 -6250 0
193750 -6250 0
190625 -3125 0
193750 -3125 0
193750 -6250 0
196875 -6250 0
193750 -3125 0
196875 -3125 0
196875 -6250 0
200000 -6250 0
196875 -3125 0
200000 -3125 0
196875 -3125 0
200000 -3125 0
196875 0 0
200000 0 0
137500 -68750 0
140625 -68750 0
137500 -65625 0
140625 -65625 0
140625 -68750 0
143750 -68750 0
140625 -65625 0
143750 -65625 0
137500 -65625 0
140625 -65625 0
137500 -62500 0
140625 -62500 0
140625 -65625 0
143750 -65625 0
140625 -62500 0
143750 -62500 0
131250 -56250 0
134375 -56250 0
131250 -53125 0
134375 -53125 0
134375 -56250 0
137500 -56250 0
134375 -53125 0
137500 -53125 0
131250 -53125 0
134375 -53125 0
131250 -50000 0
134375 -50000 0
134375 -53125 0
137500 -53125 0
134375 -50000 0
137500 -50000 0
137500 -62500 0
140625 -62500 0
137500 -59375 0
140625 -59375 0
140625 -62500 0
143750 -62500 0
140625 -59375 0
143750 -59375 0
137500 -59375 0
140625 -59375 0
137500 -56250 0
140625 -56250 0
140625 -59375 0
143750 -59375 0
140625 -56250 0
143750 -56250 0
175000 -100000 0
178125 -100000 0
175000 -96875 0
178125 -96875 0
178125 -100000 0
181250 -100000 0
178125 -96875 0
181250 -96875 0
175000 -96875 0
178125 -96875 0
175000 -93750 0
178125 -93750 0
178125 -96875 0
181250 -96875 0
178125 -93750 0
181250 -93750 0
181250 -93750 0
184375 -93750 0
181250 -90625 0
184375 -90625 0
184375 -93750 0
187500 -93750 0
184375 -90625 0
187500 -90625 0
181250 -90625 0
184375 -90625 0
181250 -87500 0
184375 -87500 0
184375 -90625 0
187500 -90625 0
184375 -87500 0
187500 -87500 0
193750 -100000 0
196875 -100000 0
193750 -96875 0
196875 -96875 0
196875 -100000 0
200000 -100000 0
196875 -96875 0
200000 -96875 0
193750 -96875 0
196875 -96875 0
193750 -93750 0
196875 -93750 0
196875 -96875 0
200000 -96875 0
196875 -93750 0
200000 -93750 0
187500 -93750 0
190625 -93750 0
187500 -90625 0
190625 -90625 0
190625 -93750 0
193750 -93750 0
190625 -90625 0
193750 -90625 0
187500 -90625 0
190625 -90625 0
187500 -87500 0
190625 -87500 0
190625 -90625 0
193750 -90625 0
190625 -87500 0
193750 -87500 0
193750 -93750 0
196875 -93750 0
193750 -90625 0
196875 -90625 0
196875 -93750 0
200000 -93750 0
196875 -90625 0
200000 -90625 0
193750 -90625 0
196875 -90625 0
193750 -87500 0
196875 -87500 0
196875 -90625 0
200000 -90625 0
196875 -87500 0
200000 -87500 0
181250 -87500 0
184375 -87500 0
181250 -84375 0
184375 -84375 0
184375 -87500 0
187500 -87500 0
184375 -84375 0
187500 -84375 0
181250 -84375 0
184375 -84375 0
181250 -81250 0
184375 -81250 0
184375 -84375 0
187500 -84375 0
184375 -81250 0
187500 -81250 0
175000 -81250 0
178125 -81250 0
175000 -78125 0
178125 -78125 0
178125 -81250 0
181250 -81250 0
178125 -78125 0
181250 -78125 0
175000 -78125 0
178125 -78125 0
175000 -75000 0
178125 -75000 0
178125 -78125 0
181250 -78125 0
178125 -75000 0
181250 -75000 0
181250 -81250 0
184375 -81250 0
[...]
POINT_DATA 76064
SCALARS velocity double 1
LOOKUP_TABLE default
120.076 118.447 117.052 115.533 117.052 115.533 113.735 112.691 116.09 116.914 115.578 116.185 116.52 117.251 116.914 117.068 117.251 117.117 117.068 117.419 117.862 117.192 116.211 116.3 117.192 117.821 116.3 117.593 117.821 118.25 117.593 117.993 116.211 116.3 115.143 115.399 117.117 117.874 117.419 117.714 117.874 118.269 117.714 119.058 122.826 121.434 122.572 122.449 121.434 121.956 122.449 122.694 122.572 122.449 121.666 122.268 122.449 122.694 122.268 124.884 120.045 120.07 118.25 119.243 120.07 119.878 119.243 119.014 118.25 119.243 117.993 118.341 119.243 119.014 118.341 118.743 116.3 117.593 115.399 116.89 117.593 117.993 116.89 117.548 115.399 116.89 116.52 117.251 116.89 117.548 117.251 117.117 117.993 118.341 117.548 118.194 118.341 118.743 118.194 118.66 117.548 118.194 117.117 117.874 118.194 118.66 117.874 118.269 144.898 141.73 143.712 139.568 153.927 152.04 150.298 151.783 139.602 135.176 136.633 134.492 135.176 131.652 134.492 129.353 137.205 134.275 136.255 131.837 108.645 109.112 106.275 107.706 99.9569 102.527 96.2278 100.972 104.258 105.418 102.527 104.446 129.473 125.573 129.885 126.738 126.738 123.916 127.852 125.442 113.915 112.317 114.566 113.516 114.566 113.516 116.106 115.156 109.025 111.56 110.815 112.011 110.815 112.011 111.657 111.638 111.657 111.638 111.854 112.836 121.59 120.5 120.219 120.501 120.501 123.053 122.355 120.772 122.355 120.772 122.277 119.394 122.279 121.438 122.49 120.076 121.438 118.997 120.076 119.262 118.997 119.102 119.262 118.447 126.347 123.831 122.002 122.265 123.831 123.764 122.265 121.324 122.002 122.265 120.19 120.044 122.265 121.324 120.044 119.063 122.735 122.277 119.78 119.469 122.277 119.394 119.469 117.789 119.78 119.469 118.05 117.324 119.469 117.789 117.324 117.269 123.764 122.176 121.324 120.917 122.176 121.814 120.917 122.524 121.324 120.917 119.063 118.595 120.917 122.524 118.595 118.168 117.269 116.471 115.506 114.575 116.471 113.735 114.575 113.55 113.735 113.213 113.55 110.938 113.213 112.691 110.938 113.636 114.127 123.043 116.362 122.404 123.043 128.758 122.404 128.087 116.362 122.404 120.278 121.642 122.404 128.087 121.642 125.101 123.622 120.278 125.203 123.048 125.203 123.048 125.003 122.388 132.455 125.213 127.604 124.292 128.087 127.604 125.101 124.189 127.604 124.292 124.189 122.742 125.003 122.388 124.11 120.725 124.11 120.725 119.776 118.181 119.102 117.902 118.447 114.62 117.902 116.072 114.62 112.103 118.447 114.62 116.99 112.321 114.62 112.103 112.321 111.456 116.99 112.321 115.533 112.312 115.819 117.465 116.456 117.096 118.37 119.52 117.465 117.779 119.52 118.577 117.779 116.462 118.979 116.778 118.577 115.297 118.577 115.297 116.462 116.419 117.465 117.779 117.096 117.48 117.779 116.462 117.48 117.612 117.48 117.612 118.063 117.011 117.612 117.983 117.011 117.019 117.983 117.175 117.019 116.733 112.539 112.071 110.007 109.587 112.071 112.236 109.587 111.311 112.236 112.12 111.311 111.027 111.311 111.027 110.2 110.924 111.56 112.789 112.011 112.338 112.789 112.146 112.338 114.495 112.011 112.338 111.638 112.882 112.338 114.495 112.882 114.807 116.185 115.968 117.139 116.209 117.139 116.209 117.173 115.863 116.209 116.651 115.863 115.149 116.597 116.859 115.658 115.41 116.651 115.658 115.149 113.908 117.173 115.863 114.734 112.875 115.863 115.149 112.875 113.035 115.149 113.908 113.035 114.04 114.495 117.661 114.807 116.337 127.273 130.618 128.145 131.915 130.618 132.218 131.915 135.645 132.218 133.034 135.645 138.731 128.145 131.915 129.806 132.748 131.915 135.645 132.748 139.078 135.645 138.731 139.078 144.513 139.078 144.513 147.704 148.183 123.053 122.49 120.772 119.742 122.49 120.076 119.742 118.564 120.772 119.742 119.394 118.044 119.742 118.564 118.044 117.052 118.05 117.324 117.15 116.105 117.324 117.269 116.105 115.506 117.15 116.105 114.856 114.485 116.105 115.506 114.485 112.533 119.394 118.044 117.789 115.575 118.044 117.052 115.575 115.394 117.789 115.575 117.269 116.471 115.575 115.394 116.471 113.735 115.448 114.811 118.525 117.954 114.811 114.127 117.954 116.362 118.525 117.954 121.466 123.622 117.954 116.362 123.622 120.278 120.278 121.642 123.048 123.745 121.642 125.101 123.745 124.169 123.048 123.745 122.388 123.518 123.745 124.169 123.518 122.826 125.213 120.524 124.292 122.183 120.524 117.794 122.183 118.996 124.292 122.183 122.742 121.901 122.183 118.996 121.901 120.025 125.101 124.189 124.169 123.395 124.189 122.742 123.395 121.416 124.169 123.395 122.826 122.13 123.395 121.416 122.13 121.434 122.742 121.901 121.416 121.185 121.901 120.025 121.185 121.128 121.416 121.185 121.434 121.695 121.185 121.128 121.695 121.956 122.388 123.518 120.725 121.723 123.518 122.826 121.723 122.699 120.725 121.723 118.181 120.423 121.723 122.699 120.423 122.572 118.881 119.776 117.477 117.452 119.776 118.181 117.452 117.24 117.477 117.452 116.192 117.283 117.452 117.24 117.283 117.664 118.181 120.423 117.24 120.642 120.423 122.572 120.642 122.119 117.24 120.642 117.664 119.542 120.642 122.119 119.542 121.666 110.924 113.867 110.926 112.185 113.867 115.578 112.185 113.46 110.926 112.185 109.112 110.831 112.185 113.46 110.831 112.877 115.578 115.881 113.46 115.372 115.881 116.185 115.372 117.139 113.46 115.372 112.877 115.259 115.372 117.139 115.259 117.173 109.112 110.831 107.706 110.285 110.831 112.877 110.285 110.974 107.706 110.285 106.318 109.025 110.285 110.974 109.025 111.56 112.877 115.259 110.974 112.969 115.259 117.173 112.969 114.734 110.974 112.969 111.56 112.789 112.969 114.734 112.789 112.146 116.192 117.283 117.355 117.656 117.283 117.664 117.656 116.714 117.355 117.656 116.871 115.829 117.656 116.714 115.829 116.47 117.664 119.542 116.714 116.912 119.542 121.666 116.912 119.235 116.714 116.912 116.47 118.782 116.912 119.235 118.782 119.691 116.871 115.829 117.175 117.74 115.829 116.47 117.74 117.744 117.175 117.74 116.733 118.036 117.74 117.744 118.036 118.843 116.47 118.782 117.744 118.929 118.782 119.691 118.929 119.782 117.744 118.929 118.843 119.487 118.929 119.782 119.487 120.045 111.923 112.38 112.045 112.324 112.38 112.439 112.324 112.778 112.045 112.324 112.071 112.236 112.324 112.778 112.236 112.12 112.439 113.417 112.778 113.634 113.417 113.785 113.634 114.679 112.778 113.634 112.12 114.03 113.634 114.679 114.03 116.09 113.785 115.194 114.679 115.598 115.194 116.52 115.598 116.717 114.679 115.598 116.09 116.502 115.598 116.717 116.502 116.914 112.12 114.03 111.027 113.917 114.03 116.09 113.917 115.834 111.027 113.917 110.924 113.867 113.917 115.834 113.867 115.578 116.914 116.991 116.549 116.514 116.991 117.068 116.514 116.998 116.549 116.514 116.185 115.968 116.514 116.998 115.968 115.995 117.068 117.243 116.998 117.566 117.243 117.419 117.566 118.659 116.998 117.566 115.995 116.597 117.566 118.659 116.597 116.859 116.859 118.182 115.41 116.957 118.182 119.327 116.957 118.093 115.41 116.957 114.671 114.762 116.957 118.093 114.762 116.394 115.533 112.312 114.112 112.833 112.312 113.943 112.833 112.704 114.112 112.833 112.691 112.457 112.833 112.704 112.457 112.677 113.943 117.312 112.704 114.627 117.312 118.599 114.627 116.217 112.704 114.627 112.677 114.12 114.627 116.217 114.12 115.552 112.691 112.457 113.636 112.896 112.457 112.677 112.896 113.48 113.636 112.896 112.263 113.095 112.896 113.48 113.095 112.839 112.677 114.12 113.48 113.865 114.12 115.552 113.865 115.209 113.48 113.865 112.839 113.348 113.865 115.209 113.348 114.709 118.599 118.063 116.217 116.962 118.063 117.011 116.962 117.232 116.217 116.962 115.552 116.747 116.962 117.232 116.747 117.862 117.011 117.019 117.232 117.367 117.019 116.733 117.367 117.959 117.232 117.367 117.862 117.527 117.367 117.959 117.527 117.192 115.552 116.747 115.209 116.438 116.747 117.862 116.438 117.037 115.209 116.438 114.709 115.117 116.438 117.037 115.117 116.211 121.666 121.967 119.235 120.733 121.967 122.268 120.733 120.637 119.235 120.733 119.691 119.441 120.733 120.637 119.441 119.324 122.268 123.576 120.637 121.271 123.576 124.884 121.271 122.907 120.637 121.271 119.324 119.66 121.271 122.907 119.66 120.597 119.691 119.441 119.782 119.182 119.441 119.324 119.182 119.614 119.782 119.182 120.045 120.057 119.182 119.614 120.057 120.07 119.324 119.66 119.614 120.493 119.66 120.597 120.493 120.936 119.614 120.493 120.07 119.974 120.493 120.936 119.974 119.878 116.733 118.036 117.959 118.238 118.036 118.843 118.238 118.42 117.959 118.238 117.192 117.506 118.238 118.42 117.506 117.821 118.843 119.487 118.42 118.526 119.487 120.045 118.526 119.147 118.42 118.526 117.821 118.036 118.526 119.147 118.036 118.25 112.263 113.095 113.128 113.464 113.095 112.839 113.464 113.448 113.128 113.464 114.712 114.265 113.464 113.448 114.265 114.434 112.839 113.348 113.448 113.953 113.348 114.709 113.953 114.319 113.448 113.953 114.434 114.313 113.953 114.319 114.313 114.7 114.712 114.265 115.772 114.634 114.265 114.434 114.634 113.963 115.772 114.634 117.772 114.152 114.634 113.963 114.152 111.923 114.434 114.313 113.963 113.809 114.313 114.7 113.809 113.282 113.963 113.809 111.923 112.38 113.809 113.282 112.38 112.439 114.709 115.117 114.319 114.771 115.117 116.211 114.771 115.677 114.319 114.771 114.7 116.026 114.771 115.677 116.026 115.143 114.7 116.026 113.282 113.243 116.026 115.143 113.243 114.215 113.282 113.243 112.439 113.417 113.243 114.215 113.417 113.785 115.143 115.271 114.215 115.115 115.271 115.399 115.115 115.96 114.215 115.115 113.785 115.194 115.115 115.96 115.194 116.52 117.419 117.566 118.659 118.674 117.566 117.714 118.674 118.531 118.659 118.674 116.859 118.182 118.674 118.531 118.182 119.327 117.714 118.386 118.531 118.501 118.386 119.058 118.501 119.231 118.531 118.501 119.327 120.416 118.501 119.231 120.416 120.836 172.715 166.457 172.152 166.356 155.097 154.792 156.542 153.274 161.278 161.457 167.844 162.997 152.886 148.783 152.309 150.957 148.736 144.34 150.821 145.452 174.475 170.264 174.042 171.237 174.042 171.237 172.058 169.381 123.129 123.663 123.523 123.085 123.523 123.085 122.299 122.058 128.511 127.974 130.992 129.805 128.605 128.41 130.666 131.054 130.992 129.805 132.665 131.986 132.665 131.986 133.701 134.211 131.986 132.56 134.211 134.221 131.524 128.261 131.544 129.194 131.544 129.194 131.829 131.266 136.319 134.956 136.419 135.434 170.52 166.807 169.735 165.949 178.842 169.32 180.57 172.304 175.595 166.723 176.719 169.476 162.037 156.64 160.227 156.085 146.031 144.179 147.619 144.529 158.218 155.326 157.563 153.2 155.326 151.769 153.2 149.215 153.2 149.215 152.644 147.243 159.575 155.611 156.728 152.065 152.644 147.243 150.084 146.524 143.886 140.816 143.323 142.308 143.323 142.308 142.713 143.135 187.758 178.348 185.251 175.748 185.251 175.748 181.859 173.108 155.423 150.718 153.572 146.338 160.479 155.43 158.042 153.961 153.572 146.338 148.096 145.856 172.973 166.906 170.065 163.66 168.676 163.638 166.906 161.076 166.906 161.076 163.66 157.889 178.266 170.065 173.941 165.765 170.065 163.66 165.765 159.332 173.941 165.765 167.68 161.758 165.765 159.332 161.758 156.339 163.66 157.889 159.332 155.01 142.489 141.111 143.963 142.742 146.875 143.963 146.855 144.073 143.963 142.742 144.073 143.138 141.97 142.208 141.503 141.067 141.503 141.067 140.848 140.477 140.848 140.477 140.115 139.47 140.077 140.115 138.505 139.055 118.985 121.138 118.331 120.257 143.927 142.325 141.974 139.854 135.789 131.263 128.718 124.182 131.263 129.319 124.182 120.17 142.842 141.185 142.446 139.859 139.689 137.444 136.081 133.364 99.7957 99.7976 90.6795 91.6933 139.024 136.419 136.445 135.957 45.7202 54.6008 44.4701 53.4897 54.6008 63.5649 53.4897 62.4585 63.5649 71.8023 62.4585 70.8764 53.4897 62.4585 52.6024 61.7987 62.4585 70.8764 61.7987 70.118 104.854 111.71 99.5644 106.887 99.5644 106.887 94.8509 101.624 106.887 113.189 101.624 110.362 101.624 110.362 97.1214 105.616 71.8023 80.1419 70.8764 79.3871 80.1419 88.7747 79.3871 87.7899 88.7747 97.1475 87.7899 96.066 97.1475 105.446 96.066 104.486 70.8764 79.3871 70.118 78.257 79.3871 87.7899 78.257 87.1069 78.257 87.1069 76.0392 84.6993 87.7899 96.066 87.1069 95.7035 96.066 104.486 95.7035 103.139 115.309 124.527 113.712 122.992 105.446 113.712 104.486 112.881 113.712 122.992 112.881 120.993 104.486 112.881 103.139 111.609 112.881 120.993 111.609 119.8 103.139 111.609 100.353 109.639 120.993 128.341 119.8 127.72 114.481 122.893 113.386 122.369 104.767 113.386 104.08 113.111 113.386 122.369 113.111 120.981 63.2808 73.2015 63.3755 73.5061 73.2015 83.1173 73.5061 83.3878 83.1173 93.2204 83.3878 91.736 114.316 121.529 113.145 122.748 110.979 119.561 110.437 117.656 132.747 134.731 135.429 138.212 135.695 135.429 136.409 139.282 136.409 139.282 138.155 139.97 135.429 138.212 139.282 139.817 138.212 139.294 139.817 139.712 139.712 140.652 139.883 142.085 138.155 139.97 138.283 140.98 139.97 141.096 140.98 141.141 140.98 141.141 140.344 140.974 141.141 140.616 140.974 143.142 140.344 140.974 138.521 140.646 140.974 143.142 140.646 141.969 139.883 142.085 140.616 143.622 142.085 142.721 143.622 143.739 140.616 143.622 143.142 143.023 143.739 143.193 143.556 144.054 143.023 143.556 142.801 146.581 141.969 142.801 140.903 145.098 142.801 146.581 145.098 149.097 150.187 152.83 150.705 152.887 121.529 130.323 122.748 130.756 141.217 145.217 142.378 147.612 142.378 147.612 141.776 148.485 145.217 148.527 147.612 149.906 148.527 151.531 149.906 153.63 0 5.72413 0 7.54459 0 7.54459 0 6.21752 0 6.21752 0 5.82168 6.21752 11.4519 5.82168 12.7626 0 5.82168 0 6.13336 5.82168 12.7626 6.13336 13.3965 182.786 184.635 187.214 189.56 143.728 139.118 143.776 139.802 139.118 134.972 139.802 136.075 143.776 139.802 143.504 139.839 139.802 136.075 139.839 137.531 129.644 125.573 131.596 127.25 122.429 119.02 123.405 120.399 125.573 123.405 127.25 123.746 123.405 120.399 123.746 121.668 131.596 127.25 133.303 129.337 133.303 129.337 134.383 130.863 127.25 123.746 129.337 124.986 129.337 124.986 130.863 127.553 124.986 122.637 127.553 123.808 119.02 116.288 120.399 116.981 120.399 116.981 121.668 118.595 121.668 118.595 122.637 119.118 122.637 119.118 123.808 119.682 135.867 134.383 137.573 134.3 134.383 130.863 134.3 131.714 137.573 134.3 137.723 134.914 134.3 131.714 134.914 130.04 130.863 127.553 131.714 128.298 127.553 123.808 128.298 124.528 134.914 130.04 132.619 128.54 132.619 128.54 133.092 130.217 123.808 119.682 124.528 120.572 124.528 120.572 124.426 121.986 123.902 121.158 126.421 120.215 140.816 138.227 142.308 139.595 138.227 136.862 139.595 138.69 142.308 139.595 143.135 141.382 143.135 141.382 143.664 143.192 143.192 141.811 142.531 142.054 133.97 131.083 136.155 132.621 126.421 120.215 125.973 122.056 125.973 122.056 126.627 123.539 126.627 123.539 128.262 123.728 128.262 123.728 128.77 124.005 136.862 136.155 138.69 136.92 136.155 132.621 136.92 133.471 138.69 136.92 141.543 137.724 136.92 133.471 137.724 134.062 133.471 130.422 134.062 130.516 141.543 137.724 141.811 138.871 137.724 134.062 138.871 135.849 141.811 138.871 142.054 140.624 138.871 135.849 140.624 137.214 134.062 130.516 135.849 132.63 135.849 132.63 137.214 134.567 146.995 147.672 147.582 146.279 140.624 137.214 140.822 138.405 141.111 140.822 142.742 141.576 137.214 134.567 138.405 133.87 133.87 131.524 132.257 131.544 142.742 141.576 143.138 141.257 135.413 132.257 135.239 133.345 132.257 131.544 133.345 131.829 135.239 133.345 136.962 134.488 142.208 140.575 141.067 139.313 141.067 139.313 140.477 138.157 139.313 136.317 138.157 136.257 134.488 133.978 134.08 134.237 136.317 134.08 136.257 134.304 134.08 134.237 134.304 133.081 140.477 138.157 139.47 137.412 146.112 146.677 147.088 147.538 147.088 147.538 147.253 147.262 145.483 146.382 145.086 145.037 146.382 146.533 145.037 145.43 128.181 131.78 127.611 131.115 131.78 134.666 131.115 134.379 141.204 142.742 142.455 144.229 141.499 141.574 142.3 142.847 141.574 142.202 142.847 142.197 142.202 143.523 142.197 142.328 142.197 142.328 142.879 141.792 142.328 141.69 141.792 139.789 141.69 141.837 139.789 141.672 141.837 143.668 141.672 144.107 143.668 145.354 144.107 146.201 145.288 146.898 146.244 147.896 145.354 146.244 146.201 147.97 146.244 147.896 147.97 149.367 147.896 148.693 149.367 150.202 148.693 149.253 150.202 151.421 149.253 149.658 151.421 152.379 150.202 151.421 152.164 153.914 151.421 152.379 153.914 156.025 152.379 151.714 156.025 159.014 153.914 156.025 155.675 158.877 156.025 159.014 158.877 163.302 155.675 158.877 158.815 161.139 158.877 163.302 161.139 163.613 133.089 134.761 130.078 134.34 130.078 134.34 128.196 130.962 121.43 123.462 121.882 125.195 187.48 186.432 188.863 188.325 191.64 191.754 193.158 194.626 191.754 191.706 194.626 195.326 123.462 127.611 125.195 128.847 127.611 131.115 128.847 131.427 131.115 134.379 131.427 134.173 131.427 134.173 132.453 135.099 195.978 198.455 197.036 200.609 129.718 134.09 129.932 133.648 140.309 143.491 139.313 142.757 198.455 201.481 200.609 203.554 202.395 206.048 203.901 208.441 142.757 144.656 142.242 145.003 144.656 146.361 145.003 148.723 145.003 148.723 145.476 149.108 160.111 163.727 162.056 166.458 163.727 168.94 166.458 169.883 155.762 160.5 157.272 163.884 167.143 169.653 168.562 171.552 164.313 166.575 162.457 168.39 105.702 103.128 106.888 105.811 103.128 102.78 105.811 104.977 106.888 105.811 110.054 108.421 110.054 108.421 112.652 111.385 105.811 104.977 108.421 107.752 104.977 104.413 107.752 107.862 108.421 107.752 111.385 109.786 107.752 107.862 109.786 109.472 100.339 100.69 105.386 103.191 111.385 109.786 113.527 113.403 109.786 109.472 113.403 109.527 113.403 109.527 112.996 113.145 112.996 113.145 113.267 113.136 112.438 113.267 117.008 117.122 113.267 113.136 117.122 116.406 109.527 107.65 113.145 113.647 107.65 107.178 113.647 112.654 107.178 106.944 112.654 110.946 113.136 113.167 116.406 115.815 112.654 110.946 115.14 113.929 115.14 113.929 118.462 117.325 171.552 176.436 173.122 179.217 176.436 182.187 179.217 184.543 116.569 117.87 121.462 119.321 117.122 116.406 119.381 118.263 119.381 118.263 119.042 119.63 173.122 179.217 176.116 180.886 179.217 184.543 180.886 185.186 116.406 115.815 118.263 115.43 118.263 115.43 119.63 118.569 115.43 117.251 118.569 115.306 118.462 117.325 117.251 121.466 117.325 117.881 121.466 121.019 119.221 121.841 120.514 121.991 119.295 121.451 123.664 122.891 121.451 121.445 122.891 123.96 121.445 121.55 123.96 124.472 119.591 120.845 123.944 123.566 123.944 123.566 125.457 128.043 121.55 120.579 124.472 124.691 120.579 124.133 124.691 128.493 121.153 125.457 124.133 128.523 125.457 128.043 128.523 132.467 124.133 128.523 128.493 131.288 128.523 132.467 131.288 133.745 122.817 123.664 123.663 124.948 122.891 123.96 124.511 125.877 123.96 124.472 125.877 126.017 125.877 126.017 126.589 128.032 124.472 124.691 126.017 128.148 124.691 128.493 128.148 130.711 126.017 128.148 128.032 128.703 131.288 133.745 132.708 134.09 134.77 138.478 137.733 141.238 131.124 134.801 130.66 135.032 134.801 137.733 135.032 139.299 137.733 141.238 139.299 140.71 141.238 142.886 140.71 142.756 123.606 125.181 124.818 126.264 125.181 127.312 126.264 128.236 124.818 126.264 126.63 127.807 126.264 128.236 127.807 129.544 96.0578 97.5991 98.8635 99.0127 97.5991 98.2158 99.0127 99.7814 98.2158 99.1351 99.7814 100.418 98.0991 100.383 99.8627 103.172 99.1351 99.9139 100.418 101.023 99.9139 101.879 101.023 104.25 101.879 104.885 104.25 107.926 103.311 105.79 107.115 108.276 105.79 108.01 108.276 111.413 101.023 104.25 103.198 107.949 104.25 107.926 107.949 110.195 108.01 110.886 111.413 113.705 109.93 111.139 112.811 114.331 111.139 113.472 114.331 117.536 113.472 116.424 117.536 120.278 116.424 117.161 120.278 120.314 117.161 119.201 120.314 118.65 107.115 108.276 111.986 110.558 111.986 110.558 114.75 114.366 114.75 114.366 117.532 116.888 114.366 115.254 116.888 116.145 117.532 116.888 119.326 119.351 116.888 116.145 119.351 117.897 113.705 114.119 114.037 115.751 114.037 115.751 115.2 117.204 114.119 114.772 115.751 116.949 115.751 116.949 117.204 118.