# vtk DataFile Version 3.0
#This file was generated by the deal.II library on 2016/5/13 at 16:44:33
ASCII
DATASET UNSTRUCTURED_GRID

POINTS 76064 double
143750 -68750 0
150000 -68750 0
143750 -62500 0
150000 -62500 0
143750 -62500 0
150000 -62500 0
143750 -56250 0
150000 -56250 0
168750 -31250 0
175000 -31250 0
168750 -25000 0
175000 -25000 0
175000 -37500 0
181250 -37500 0
175000 -31250 0
181250 -31250 0
181250 -37500 0
187500 -37500 0
181250 -31250 0
187500 -31250 0
168750 -56250 0
175000 -56250 0
168750 -50000 0
175000 -50000 0
175000 -56250 0
181250 -56250 0
175000 -50000 0
181250 -50000 0
181250 -56250 0
187500 -56250 0
181250 -50000 0
187500 -50000 0
168750 -50000 0
175000 -50000 0
168750 -43750 0
175000 -43750 0
187500 -37500 0
193750 -37500 0
187500 -31250 0
193750 -31250 0
193750 -37500 0
200000 -37500 0
193750 -31250 0
200000 -31250 0
187500 -87500 0
193750 -87500 0
187500 -81250 0
193750 -81250 0
193750 -87500 0
200000 -87500 0
193750 -81250 0
200000 -81250 0
187500 -81250 0
193750 -81250 0
187500 -75000 0
193750 -75000 0
193750 -81250 0
200000 -81250 0
193750 -75000 0
200000 -75000 0
187500 -62500 0
193750 -62500 0
187500 -56250 0
193750 -56250 0
193750 -62500 0
200000 -62500 0
193750 -56250 0
200000 -56250 0
187500 -56250 0
193750 -56250 0
187500 -50000 0
193750 -50000 0
193750 -56250 0
200000 -56250 0
193750 -50000 0
200000 -50000 0
175000 -50000 0
181250 -50000 0
175000 -43750 0
181250 -43750 0
181250 -50000 0
187500 -50000 0
181250 -43750 0
187500 -43750 0
175000 -43750 0
181250 -43750 0
175000 -37500 0
181250 -37500 0
181250 -43750 0
187500 -43750 0
181250 -37500 0
187500 -37500 0
187500 -50000 0
193750 -50000 0
187500 -43750 0
193750 -43750 0
193750 -50000 0
200000 -50000 0
193750 -43750 0
200000 -43750 0
187500 -43750 0
193750 -43750 0
187500 -37500 0
193750 -37500 0
193750 -43750 0
200000 -43750 0
193750 -37500 0
200000 -37500 0
96875 -43750 0
100000 -43750 0
96875 -40625 0
100000 -40625 0
109375 -84375 0
112500 -84375 0
109375 -81250 0
112500 -81250 0
112500 -68750 0
115625 -68750 0
112500 -65625 0
115625 -65625 0
115625 -68750 0
118750 -68750 0
115625 -65625 0
118750 -65625 0
106250 -50000 0
109375 -50000 0
106250 -46875 0
109375 -46875 0
159375 -18750 0
162500 -18750 0
159375 -15625 0
162500 -15625 0
153125 -9375 0
156250 -9375 0
153125 -6250 0
156250 -6250 0
156250 -12500 0
159375 -12500 0
156250 -9375 0
159375 -9375 0
112500 -46875 0
115625 -46875 0
112500 -43750 0
115625 -43750 0
115625 -43750 0
118750 -43750 0
115625 -40625 0
118750 -40625 0
134375 -46875 0
137500 -46875 0
134375 -43750 0
137500 -43750 0
134375 -43750 0
137500 -43750 0
134375 -40625 0
137500 -40625 0
165625 -12500 0
168750 -12500 0
165625 -9375 0
168750 -9375 0
165625 -9375 0
168750 -9375 0
165625 -6250 0
168750 -6250 0
165625 -6250 0
168750 -6250 0
165625 -3125 0
168750 -3125 0
131250 -71875 0
134375 -71875 0
131250 -68750 0
134375 -68750 0
134375 -68750 0
137500 -68750 0
134375 -65625 0
137500 -65625 0
134375 -65625 0
137500 -65625 0
134375 -62500 0
137500 -62500 0
140625 -71875 0
143750 -71875 0
140625 -68750 0
143750 -68750 0
143750 -71875 0
146875 -71875 0
143750 -68750 0
146875 -68750 0
146875 -71875 0
150000 -71875 0
146875 -68750 0
150000 -68750 0
131250 -81250 0
134375 -81250 0
131250 -78125 0
134375 -78125 0
134375 -81250 0
137500 -81250 0
134375 -78125 0
137500 -78125 0
131250 -78125 0
134375 -78125 0
131250 -75000 0
134375 -75000 0
134375 -78125 0
137500 -78125 0
134375 -75000 0
137500 -75000 0
131250 -62500 0
134375 -62500 0
131250 -59375 0
134375 -59375 0
134375 -62500 0
137500 -62500 0
134375 -59375 0
137500 -59375 0
131250 -59375 0
134375 -59375 0
131250 -56250 0
134375 -56250 0
134375 -59375 0
137500 -59375 0
134375 -56250 0
137500 -56250 0
137500 -81250 0
140625 -81250 0
137500 -78125 0
140625 -78125 0
140625 -81250 0
143750 -81250 0
140625 -78125 0
143750 -78125 0
137500 -78125 0
140625 -78125 0
137500 -75000 0
140625 -75000 0
140625 -78125 0
143750 -78125 0
140625 -75000 0
143750 -75000 0
137500 -56250 0
140625 -56250 0
137500 -53125 0
140625 -53125 0
140625 -56250 0
143750 -56250 0
140625 -53125 0
143750 -53125 0
143750 -56250 0
146875 -56250 0
143750 -53125 0
146875 -53125 0
146875 -56250 0
150000 -56250 0
146875 -53125 0
150000 -53125 0
181250 -100000 0
184375 -100000 0
181250 -96875 0
184375 -96875 0
184375 -100000 0
187500 -100000 0
184375 -96875 0
187500 -96875 0
181250 -96875 0
184375 -96875 0
181250 -93750 0
184375 -93750 0
184375 -96875 0
187500 -96875 0
184375 -93750 0
187500 -93750 0
178125 -93750 0
181250 -93750 0
178125 -90625 0
181250 -90625 0
178125 -90625 0
181250 -90625 0
178125 -87500 0
181250 -87500 0
190625 -100000 0
193750 -100000 0
190625 -96875 0
193750 -96875 0
187500 -96875 0
190625 -96875 0
187500 -93750 0
190625 -93750 0
190625 -96875 0
193750 -96875 0
190625 -93750 0
193750 -93750 0
178125 -87500 0
181250 -87500 0
178125 -84375 0
181250 -84375 0
178125 -84375 0
181250 -84375 0
178125 -81250 0
181250 -81250 0
150000 -71875 0
153125 -71875 0
150000 -68750 0
153125 -68750 0
153125 -71875 0
156250 -71875 0
153125 -68750 0
156250 -68750 0
150000 -68750 0
153125 -68750 0
150000 -65625 0
153125 -65625 0
153125 -68750 0
156250 -68750 0
153125 -65625 0
156250 -65625 0
150000 -65625 0
153125 -65625 0
150000 -62500 0
153125 -62500 0
159375 -68750 0
162500 -68750 0
159375 -65625 0
162500 -65625 0
162500 -71875 0
165625 -71875 0
162500 -68750 0
165625 -68750 0
165625 -71875 0
168750 -71875 0
165625 -68750 0
168750 -68750 0
168750 -75000 0
171875 -75000 0
168750 -71875 0
171875 -71875 0
168750 -71875 0
171875 -71875 0
168750 -68750 0
171875 -68750 0
162500 -68750 0
165625 -68750 0
162500 -65625 0
165625 -65625 0
165625 -68750 0
168750 -68750 0
165625 -65625 0
168750 -65625 0
165625 -65625 0
168750 -65625 0
165625 -62500 0
168750 -62500 0
168750 -65625 0
171875 -65625 0
168750 -62500 0
171875 -62500 0
171875 -65625 0
175000 -65625 0
171875 -62500 0
175000 -62500 0
153125 -31250 0
156250 -31250 0
153125 -28125 0
156250 -28125 0
156250 -31250 0
159375 -31250 0
156250 -28125 0
159375 -28125 0
159375 -31250 0
162500 -31250 0
159375 -28125 0
162500 -28125 0
159375 -28125 0
162500 -28125 0
159375 -25000 0
162500 -25000 0
168750 -12500 0
171875 -12500 0
168750 -9375 0
171875 -9375 0
171875 -12500 0
175000 -12500 0
171875 -9375 0
175000 -9375 0
168750 -9375 0
171875 -9375 0
168750 -6250 0
171875 -6250 0
171875 -9375 0
175000 -9375 0
171875 -6250 0
175000 -6250 0
175000 -25000 0
178125 -25000 0
175000 -21875 0
178125 -21875 0
175000 -21875 0
178125 -21875 0
175000 -18750 0
178125 -18750 0
178125 -21875 0
181250 -21875 0
178125 -18750 0
181250 -18750 0
184375 -25000 0
187500 -25000 0
184375 -21875 0
187500 -21875 0
181250 -21875 0
184375 -21875 0
181250 -18750 0
184375 -18750 0
175000 -18750 0
178125 -18750 0
175000 -15625 0
178125 -15625 0
178125 -18750 0
181250 -18750 0
178125 -15625 0
181250 -15625 0
181250 -18750 0
184375 -18750 0
181250 -15625 0
184375 -15625 0
175000 -9375 0
178125 -9375 0
175000 -6250 0
178125 -6250 0
190625 -9375 0
193750 -9375 0
190625 -6250 0
193750 -6250 0
193750 -9375 0
196875 -9375 0
193750 -6250 0
196875 -6250 0
196875 -9375 0
200000 -9375 0
196875 -6250 0
200000 -6250 0
190625 -6250 0
193750 -6250 0
190625 -3125 0
193750 -3125 0
193750 -6250 0
196875 -6250 0
193750 -3125 0
196875 -3125 0
196875 -6250 0
200000 -6250 0
196875 -3125 0
200000 -3125 0
196875 -3125 0
200000 -3125 0
196875 0 0
200000 0 0
137500 -68750 0
140625 -68750 0
137500 -65625 0
140625 -65625 0
140625 -68750 0
143750 -68750 0
140625 -65625 0
143750 -65625 0
137500 -65625 0
140625 -65625 0
137500 -62500 0
140625 -62500 0
140625 -65625 0
143750 -65625 0
140625 -62500 0
143750 -62500 0
131250 -56250 0
134375 -56250 0
131250 -53125 0
134375 -53125 0
134375 -56250 0
137500 -56250 0
134375 -53125 0
137500 -53125 0
131250 -53125 0
134375 -53125 0
131250 -50000 0
134375 -50000 0
134375 -53125 0
137500 -53125 0
134375 -50000 0
137500 -50000 0
137500 -62500 0
140625 -62500 0
137500 -59375 0
140625 -59375 0
140625 -62500 0
143750 -62500 0
140625 -59375 0
143750 -59375 0
137500 -59375 0
140625 -59375 0
137500 -56250 0
140625 -56250 0
140625 -59375 0
143750 -59375 0
140625 -56250 0
143750 -56250 0
175000 -100000 0
178125 -100000 0
175000 -96875 0
178125 -96875 0
178125 -100000 0
181250 -100000 0
178125 -96875 0
181250 -96875 0
175000 -96875 0
178125 -96875 0
175000 -93750 0
178125 -93750 0
178125 -96875 0
181250 -96875 0
178125 -93750 0
181250 -93750 0
181250 -93750 0
184375 -93750 0
181250 -90625 0
184375 -90625 0
184375 -93750 0
187500 -93750 0
184375 -90625 0
187500 -90625 0
181250 -90625 0
184375 -90625 0
181250 -87500 0
184375 -87500 0
184375 -90625 0
187500 -90625 0
184375 -87500 0
187500 -87500 0
193750 -100000 0
196875 -100000 0
193750 -96875 0
196875 -96875 0
196875 -100000 0
200000 -100000 0
196875 -96875 0
200000 -96875 0
193750 -96875 0
196875 -96875 0
193750 -93750 0
196875 -93750 0
196875 -96875 0
200000 -96875 0
196875 -93750 0
200000 -93750 0
187500 -93750 0
190625 -93750 0
187500 -90625 0
190625 -90625 0
190625 -93750 0
193750 -93750 0
190625 -90625 0
193750 -90625 0
187500 -90625 0
190625 -90625 0
187500 -87500 0
190625 -87500 0
190625 -90625 0
193750 -90625 0
190625 -87500 0
193750 -87500 0
193750 -93750 0
196875 -93750 0
193750 -90625 0
196875 -90625 0
196875 -93750 0
200000 -93750 0
196875 -90625 0
200000 -90625 0
193750 -90625 0
196875 -90625 0
193750 -87500 0
196875 -87500 0
196875 -90625 0
200000 -90625 0
196875 -87500 0
200000 -87500 0
181250 -87500 0
184375 -87500 0
181250 -84375 0
184375 -84375 0
184375 -87500 0
187500 -87500 0
184375 -84375 0
187500 -84375 0
181250 -84375 0
184375 -84375 0
181250 -81250 0
184375 -81250 0
184375 -84375 0
187500 -84375 0
184375 -81250 0
187500 -81250 0
175000 -81250 0
178125 -81250 0
175000 -78125 0
178125 -78125 0
178125 -81250 0
181250 -81250 0
178125 -78125 0
181250 -78125 0
175000 -78125 0
178125 -78125 0
175000 -75000 0
178125 -75000 0
178125 -78125 0
181250 -78125 0
178125 -75000 0
181250 -75000 0
181250 -81250 0
184375 -81250 0
[...]
POINT_DATA 76064
SCALARS history_field_xz double 1
LOOKUP_TABLE default
-3.22163e+08 -3.22163e+08 -2.588e+08 -2.588e+08 -2.52484e+08 -2.52484e+08 -1.12327e+08 -1.12327e+08 1.64173e+08 1.64173e+08 8.09481e+07 8.09481e+07 1.336e+08 1.336e+08 2.59066e+07 2.59066e+07 9.03561e+07 9.03561e+07 1.36399e+08 1.36399e+08 3.37562e+06 3.37562e+06 1.48955e+08 1.48955e+08 1.08697e+08 1.08697e+08 2.09393e+08 2.09393e+08 1.73041e+08 1.73041e+08 1.39268e+08 1.39268e+08 7.58838e+07 7.58838e+07 1.0962e+08 1.0962e+08 1.57138e+08 1.57138e+08 6.28347e+07 6.28347e+07 5.62825e+07 5.62825e+07 2.24378e+08 2.24378e+08 -2.23453e+08 -2.23453e+08 -2.76867e+07 -2.76867e+07 8.9289e+07 8.9289e+07 4.9293e+06 4.9293e+06 -4.43835e+07 -4.43835e+07 9.25562e+07 9.25562e+07 1.9468e+07 1.9468e+07 4.71241e+08 4.71241e+08 1.64096e+07 1.64096e+07 1.66172e+08 1.66172e+08 2.18597e+07 2.18597e+07 -1.70373e+07 -1.70373e+07 2.08248e+08 2.08248e+08 7.67936e+07 7.67936e+07 2.55302e+06 2.55302e+06 7.43217e+07 7.43217e+07 2.94137e+08 2.94137e+08 2.86169e+08 2.86169e+08 9.33348e+07 9.33348e+07 9.5904e+07 9.5904e+07 2.82603e+08 2.82603e+08 9.12331e+07 9.12331e+07 1.38173e+08 1.38173e+08 -4.13366e+07 -4.13366e+07 7.56437e+07 7.56437e+07 1.13905e+08 1.13905e+08 3.96918e+07 3.96918e+07 4.9841e+07 4.9841e+07 8.6789e+07 8.6789e+07 9.1934e+07 9.1934e+07 9.22609e+07 9.22609e+07 4.13977e+07 4.13977e+07 -1.12748e+09 -1.12748e+09 -1.61734e+09 -1.61734e+09 -5.10896e+08 -5.10896e+08 6.67058e+08 6.67058e+08 -1.41979e+09 -1.41979e+09 -4.94093e+08 -4.94093e+08 -1.05e+09 -1.05e+09 -1.77306e+09 -1.77306e+09 -8.79748e+08 -8.79748e+08 -1.5192e+09 -1.5192e+09 1.94165e+08 1.94165e+08 4.71033e+08 4.71033e+08 8.27005e+08 8.27005e+08 1.54342e+09 1.54342e+09 3.98047e+08 3.98047e+08 5.93684e+08 5.93684e+08 -1.35183e+09 -1.35183e+09 -1.04209e+09 -1.04209e+09 -9.38483e+08 -9.38483e+08 -7.09973e+08 -7.09973e+08 -5.13557e+08 -5.13557e+08 -2.04925e+08 -2.04925e+08 -2.09727e+08 -2.09727e+08 -1.68183e+08 -1.68183e+08 9.2085e+08 9.2085e+08 4.53183e+08 4.53183e+08 4.38669e+08 4.38669e+08 4.20722e+07 4.20722e+07 3.66113e+07 3.66113e+07 4.31033e+08 4.31033e+08 -3.72015e+08 -3.72015e+08 2.24065e+08 2.24065e+08 1.00387e+09 1.00387e+09 -5.81656e+08 -5.81656e+08 -5.80248e+08 -5.80248e+08 -1.03001e+09 -1.03001e+09 -3.53849e+08 -3.53849e+08 -9.39501e+08 -9.39501e+08 -9.3435e+08 -9.3435e+08 -3.08996e+08 -3.08996e+08 4.0327e+07 4.0327e+07 -2.94547e+08 -2.94547e+08 -1.07701e+09 -1.07701e+09 5.36211e+07 5.36211e+07 -1.26674e+08 -1.26674e+08 -3.88923e+08 -3.88923e+08 2.61681e+07 2.61681e+07 -7.25442e+07 -7.25442e+07 -4.13683e+08 -4.13683e+08 -3.60885e+08 -3.60885e+08 -1.78537e+08 -1.78537e+08 -1.12404e+08 -1.12404e+08 -1.05047e+09 -1.05047e+09 -5.97096e+08 -5.97096e+08 -8.67607e+07 -8.67607e+07 -2.26007e+08 -2.26007e+08 -5.90995e+08 -5.90995e+08 1.08783e+07 1.08783e+07 -6.75597e+08 -6.75597e+08 -2.03753e+08 -2.03753e+08 -2.11532e+08 -2.11532e+08 5.65403e+08 5.65403e+08 -2.14551e+08 -2.14551e+08 -2.13144e+08 -2.13144e+08 5.50279e+08 5.50279e+08 -2.04522e+08 -2.04522e+08 -2.49479e+08 -2.49479e+08 -2.68885e+08 -2.68885e+08 -9.91529e+08 -9.91529e+08 -2.81992e+08 -2.81992e+08 -9.95839e+07 -9.95839e+07 -8.47206e+08 -8.47206e+08 -1.26419e+09 -1.26419e+09 4.05778e+07 4.05778e+07 2.36601e+09 2.36601e+09 1.2956e+09 1.2956e+09 1.36456e+09 1.36456e+09 1.30704e+09 1.30704e+09 1.48584e+09 1.48584e+09 -3.25843e+08 -3.25843e+08 1.33661e+09 1.33661e+09 6.0276e+08 6.0276e+08 -8.2682e+08 -8.2682e+08 -3.24218e+08 -3.24218e+08 -3.99562e+08 -3.99562e+08 -5.31064e+08 -5.31064e+08 -2.23416e+09 -2.23416e+09 -7.84354e+08 -7.84354e+08 2.66373e+08 2.66373e+08 8.24958e+07 8.24958e+07 -7.00036e+08 -7.00036e+08 5.18266e+07 5.18266e+07 -4.45455e+08 -4.45455e+08 -6.69909e+08 -6.69909e+08 -7.32327e+08 -7.32327e+08 -1.5614e+08 -1.5614e+08 2.73019e+08 2.73019e+08 -7.96927e+08 -7.96927e+08 -9.07886e+07 -9.07886e+07 -2.92542e+08 -2.92542e+08 -8.39964e+08 -8.39964e+08 -1.0868e+09 -1.0868e+09 -3.18484e+08 -3.18484e+08 3.82636e+08 3.82636e+08 -1.11219e+09 -1.11219e+09 -5.49414e+08 -5.49414e+08 7.91661e+08 7.91661e+08 3.41797e+08 3.41797e+08 7.60056e+08 7.60056e+08 4.03172e+08 4.03172e+08 -7.04474e+07 -7.04474e+07 -2.07897e+08 -2.07897e+08 -6.81312e+08 -6.81312e+08 -1.072e+09 -1.072e+09 -1.06097e+09 -1.06097e+09 1.31164e+08 1.31164e+08 2.27669e+08 2.27669e+08 3.08305e+08 3.08305e+08 -3.69627e+08 -3.69627e+08 2.0713e+08 2.0713e+08 1.80401e+08 1.80401e+08 -2.06279e+08 -2.06279e+08 2.90421e+08 2.90421e+08 1.48409e+08 1.48409e+08 -1.00512e+08 -1.00512e+08 4.66292e+07 4.66292e+07 -4.63554e+06 -4.63554e+06 -3.03709e+07 -3.03709e+07 1.67e+08 1.67e+08 7.39552e+08 7.39552e+08 1.10146e+08 1.10146e+08 2.23593e+07 2.23593e+07 6.88763e+07 6.88763e+07 3.74158e+08 3.74158e+08 5.36805e+08 5.36805e+08 2.28835e+08 2.28835e+08 -1.30877e+08 -1.30877e+08 9.38422e+08 9.38422e+08 2.40398e+08 2.40398e+08 6.03393e+08 6.03393e+08 7.92941e+08 7.92941e+08 7.79551e+08 7.79551e+08 -1.64736e+08 -1.64736e+08 -3.9886e+08 -3.9886e+08 -3.99334e+08 -3.99334e+08 -4.88757e+08 -4.88757e+08 1.5188e+08 1.5188e+08 -2.69777e+08 -2.69777e+08 2.15722e+08 2.15722e+08 -4.88792e+07 -4.88792e+07 -3.10092e+08 -3.10092e+08 -3.98234e+08 -3.98234e+08 -3.86736e+08 -3.86736e+08 -5.93516e+08 -5.93516e+08 -1.62253e+08 -1.62253e+08 1.7217e+08 1.7217e+08 -4.0986e+08 -4.0986e+08 4.5151e+08 4.5151e+08 1.34981e+09 1.34981e+09 7.94737e+08 7.94737e+08 1.18834e+09 1.18834e+09 1.14626e+09 1.14626e+09 8.25055e+08 8.25055e+08 1.3769e+09 1.3769e+09 5.27361e+08 5.27361e+08 1.13701e+09 1.13701e+09 1.36902e+09 1.36902e+09 8.63515e+08 8.63515e+08 1.33822e+09 1.33822e+09 2.08375e+09 2.08375e+09 8.46776e+08 8.46776e+08 1.55077e+09 1.55077e+09 1.55149e+09 1.55149e+09 -5.6993e+08 -5.6993e+08 -1.88252e+08 -1.88252e+08 -3.48366e+08 -3.48366e+08 -8.88506e+08 -8.88506e+08 -4.10929e+08 -4.10929e+08 -3.51008e+08 -3.51008e+08 -4.69821e+08 -4.69821e+08 -4.13829e+08 -4.13829e+08 -3.32721e+08 -3.32721e+08 -2.30807e+08 -2.30807e+08 -3.5538e+08 -3.5538e+08 3.30822e+06 3.30822e+06 -1.85637e+08 -1.85637e+08 -4.23893e+08 -4.23893e+08 -2.03543e+08 -2.03543e+08 -3.08453e+08 -3.08453e+08 -8.07945e+08 -8.07945e+08 -5.82004e+08 -5.82004e+08 -9.26222e+08 -9.26222e+08 -4.8057e+08 -4.8057e+08 -1.40454e+08 -1.40454e+08 -5.89311e+08 -5.89311e+08 -8.41424e+07 -8.41424e+07 1.8704e+08 1.8704e+08 -8.27163e+08 -8.27163e+08 4.36522e+06 4.36522e+06 -2.24428e+07 -2.24428e+07 -1.33223e+07 -1.33223e+07 -4.15889e+08 -4.15889e+08 3.64645e+07 3.64645e+07 1.09506e+09 1.09506e+09 -3.56981e+08 -3.56981e+08 -1.01015e+09 -1.01015e+09 7.76978e+08 7.76978e+08 5.17425e+08 5.17425e+08 1.57621e+09 1.57621e+09 4.10995e+08 4.10995e+08 5.20217e+08 5.20217e+08 7.16958e+08 7.16958e+08 4.13787e+08 4.13787e+08 1.87736e+07 1.87736e+07 -1.44919e+09 -1.44919e+09 -4.32321e+08 -4.32321e+08 -7.00587e+08 -7.00587e+08 -8.4611e+08 -8.4611e+08 -3.23169e+08 -3.23169e+08 6.48025e+07 6.48025e+07 -7.36958e+08 -7.36958e+08 -3.31405e+08 -3.31405e+08 5.90217e+07 5.90217e+07 1.44602e+07 1.44602e+07 -1.45296e+08 -1.45296e+08 -4.47179e+08 -4.47179e+08 1.44602e+07 1.44602e+07 -9.12137e+07 -9.12137e+07 -4.47179e+08 -4.47179e+08 -9.28708e+07 -9.28708e+07 -1.32375e+08 -1.32375e+08 -2.11329e+07 -2.11329e+07 -5.28582e+08 -5.28582e+08 4.41541e+07 4.41541e+07 -1.28359e+08 -1.28359e+08 4.64487e+07 4.64487e+07 -6.30721e+07 -6.30721e+07 4.51525e+07 4.51525e+07 3.70941e+08 3.70941e+08 3.1456e+08 3.1456e+08 -3.25345e+08 -3.25345e+08 3.05911e+08 3.05911e+08 4.32682e+08 4.32682e+08 9.0773e+08 9.0773e+08 4.24034e+08 4.24034e+08 8.71746e+08 8.71746e+08 3.83566e+08 3.83566e+08 2.41695e+07 2.41695e+07 -5.70266e+08 -5.70266e+08 -4.8172e+07 -4.8172e+07 2.5565e+07 2.5565e+07 4.17146e+08 4.17146e+08 -4.67765e+07 -4.67765e+07 1.43915e+08 1.43915e+08 3.98573e+08 3.98573e+08 7.91726e+08 7.91726e+08 3.88804e+08 3.88804e+08 8.23379e+07 8.23379e+07 7.38651e+08 7.38651e+08 2.07697e+08 2.07697e+08 2.04651e+07 2.04651e+07 3.15928e+08 3.15928e+08 7.03528e+08 7.03528e+08 1.41425e+08 1.41425e+08 2.49621e+08 2.49621e+08 1.65172e+08 1.65172e+08 6.35626e+07 6.35626e+07 1.99037e+08 1.99037e+08 8.73095e+07 8.73095e+07 3.41776e+08 3.41776e+08 -3.88206e+08 -3.88206e+08 1.79482e+08 1.79482e+08 -3.69828e+08 -3.69828e+08 1.43475e+08 1.43475e+08 3.29386e+08 3.29386e+08 4.91619e+08 4.91619e+08 2.98075e+08 2.98075e+08 3.36149e+08 3.36149e+08 3.03915e+08 3.03915e+08 6.41393e+08 6.41393e+08 4.47076e+08 4.47076e+08 -6.27007e+07 -6.27007e+07 6.8272e+08 6.8272e+08 4.52504e+08 4.52504e+08 -2.13732e+07 -2.13732e+07 4.06833e+08 4.06833e+08 3.47588e+08 3.47588e+08 -8.50234e+07 -8.50234e+07 1.84171e+08 1.84171e+08 -1.56706e+08 -1.56706e+08 5.16787e+08 5.16787e+08 1.04782e+08 1.04782e+08 4.45105e+08 4.45105e+08 -5.94343e+08 -5.94343e+08 1.25339e+08 1.25339e+08 -2.69563e+08 -2.69563e+08 -1.20692e+08 -1.20692e+08 -7.2032e+08 -7.2032e+08 9.52425e+07 9.52425e+07 -4.24436e+08 -4.24436e+08 -3.40743e+08 -3.40743e+08 2.55342e+08 2.55342e+08 5.77643e+08 5.77643e+08 -8.16831e+07 -8.16831e+07 6.87254e+08 6.87254e+08 7.48139e+08 7.48139e+08 -2.60251e+08 -2.60251e+08 6.78159e+08 6.78159e+08 5.73637e+08 5.73637e+08 1.61823e+08 1.61823e+08 -5.27877e+08 -5.27877e+08 1.59385e+08 1.59385e+08 1.0932e+08 1.0932e+08 -7.01299e+07 -7.01299e+07 -1.33275e+08 -1.33275e+08 1.91419e+08 1.91419e+08 -3.18959e+08 -3.18959e+08 3.43994e+07 3.43994e+07 4.73011e+08 4.73011e+08 1.38932e+08 1.38932e+08 -3.00832e+07 -3.00832e+07 4.73739e+07 4.73739e+07 4.17146e+07 4.17146e+07 -1.34719e+08 -1.34719e+08 -5.93042e+07 -5.93042e+07 -1.37117e+08 -1.37117e+08 -1.91535e+08 -1.91535e+08 -2.59364e+08 -2.59364e+08 -3.14022e+08 -3.14022e+08 -1.6151e+08 -1.6151e+08 -2.13294e+08 -2.13294e+08 -2.61381e+08 -2.61381e+08 -1.60771e+08 -1.60771e+08 -3.82318e+08 -3.82318e+08 5.19683e+07 5.19683e+07 -2.19263e+07 -2.19263e+07 -1.65983e+08 -1.65983e+08 6.62429e+07 6.62429e+07 -9.46846e+06 -9.46846e+06 3.61346e+08 3.61346e+08 5.84739e+07 5.84739e+07 4.12372e+08 4.12372e+08 2.22271e+08 2.22271e+08 4.44921e+07 4.44921e+07 1.10417e+08 1.10417e+08 4.0982e+07 4.0982e+07 -1.94059e+07 -1.94059e+07 -1.86655e+08 -1.86655e+08 4.43744e+07 4.43744e+07 -1.97377e+08 -1.97377e+08 3.48391e+08 3.48391e+08 7.43253e+08 7.43253e+08 5.26065e+08 5.26065e+08 4.90458e+08 4.90458e+08 8.25082e+08 8.25082e+08 8.18095e+08 8.18095e+08 4.78728e+08 4.78728e+08 3.70572e+08 3.70572e+08 -2.48066e+08 -2.48066e+08 -3.3942e+08 -3.3942e+08 -2.47198e+08 -2.47198e+08 -1.3834e+08 -1.3834e+08 -2.86774e+08 -2.86774e+08 -3.57979e+08 -3.57979e+08 -6.73988e+07 -6.73988e+07 -2.47902e+08 -2.47902e+08 -2.05215e+08 -2.05215e+08 -3.75322e+07 -3.75322e+07 -1.84227e+08 -1.84227e+08 1.75888e+08 1.75888e+08 -8.69199e+07 -8.69199e+07 -2.62175e+06 -2.62175e+06 1.41348e+08 1.41348e+08 -1.04087e+08 -1.04087e+08 2.59838e+08 2.59838e+08 4.0546e+08 4.0546e+08 1.8905e+08 1.8905e+08 2.43812e+08 2.43812e+08 5.19396e+08 5.19396e+08 -4.15597e+07 -4.15597e+07 2.61505e+08 2.61505e+08 4.01735e+08 4.01735e+08 -1.28406e+09 -1.28406e+09 -5.43397e+08 -5.43397e+08 6.17924e+08 6.17924e+08 -4.28548e+07 -4.28548e+07 -5.70781e+08 -5.70781e+08 -1.84594e+08 -1.84594e+08 -1.13107e+08 -1.13107e+08 9.8958e+06 9.8958e+06 1.07188e+09 1.07188e+09 4.82602e+08 4.82602e+08 2.96304e+08 2.96304e+08 3.79499e+08 3.79499e+08 5.60551e+08 5.60551e+08 3.93732e+08 3.93732e+08 4.34669e+08 4.34669e+08 3.90544e+08 3.90544e+08 -1.93634e+08 -1.93634e+08 -4.04042e+08 -4.04042e+08 4.53064e+06 4.53064e+06 1.2698e+08 1.2698e+08 -3.57036e+08 -3.57036e+08 2.27322e+08 2.27322e+08 1.68571e+08 1.68571e+08 -1.72626e+08 -1.72626e+08 4.38693e+08 4.38693e+08 4.43165e+07 4.43165e+07 4.38292e+08 4.38292e+08 4.07863e+08 4.07863e+08 1.3618e+08 1.3618e+08 1.84839e+08 1.84839e+08 2.77577e+08 2.77577e+08 2.91903e+08 2.91903e+08 -3.526e+08 -3.526e+08 9.80643e+07 9.80643e+07 -5.39824e+08 -5.39824e+08 -7.12697e+07 -7.12697e+07 1.45675e+08 1.45675e+08 2.98369e+08 2.98369e+08 -7.82754e+06 -7.82754e+06 3.00237e+08 3.00237e+08 -1.31282e+08 -1.31282e+08 -7.0903e+07 -7.0903e+07 -2.33298e+08 -2.33298e+08 1.12865e+08 1.12865e+08 -9.43243e+07 -9.43243e+07 -2.71875e+08 -2.71875e+08 1.14083e+08 1.14083e+08 -2.37696e+08 -2.37696e+08 3.6046e+08 3.6046e+08 3.76931e+08 3.76931e+08 3.30883e+08 3.30883e+08 1.3822e+08 1.3822e+08 3.08331e+08 3.08331e+08 -4.74045e+07 -4.74045e+07 1.45163e+08 1.45163e+08 2.96596e+08 2.96596e+08 -5.66613e+07 -5.66613e+07 3.9578e+08 3.9578e+08 -3.7855e+07 -3.7855e+07 -1.95641e+08 -1.95641e+08 3.64885e+08 3.64885e+08 -3.20414e+08 -3.20414e+08 -2.8653e+08 -2.8653e+08 -3.12222e+08 -3.12222e+08 1.42086e+08 1.42086e+08 -1.68306e+08 -1.68306e+08 1.61318e+08 1.61318e+08 2.32969e+08 2.32969e+08 7.78643e+07 7.78643e+07 -8.31817e+07 -8.31817e+07 4.74433e+08 4.74433e+08 1.60287e+08 1.60287e+08 -1.3083e+08 -1.3083e+08 -3.09805e+08 -3.09805e+08 -7.00915e+07 -7.00915e+07 9.79224e+07 9.79224e+07 -2.92529e+08 -2.92529e+08 -5.82502e+07 -5.82502e+07 1.257e+08 1.257e+08 -3.3573e+07 -3.3573e+07 3.13337e+07 3.13337e+07 2.62555e+08 2.62555e+08 2.83224e+08 2.83224e+08 1.17288e+08 1.17288e+08 2.24715e+08 2.24715e+08 -1.1813e+08 -1.1813e+08 7.9183e+07 7.9183e+07 -9.78542e+07 -9.78542e+07 3.87514e+08 3.87514e+08 2.51001e+07 2.51001e+07 2.6529e+08 2.6529e+08 3.53092e+07 3.53092e+07 9.26729e+07 9.26729e+07 1.28384e+08 1.28384e+08 6.03214e+07 6.03214e+07 1.34667e+08 1.34667e+08 3.05772e+08 3.05772e+08 8.57752e+07 8.57752e+07 2.67206e+08 2.67206e+08 2.81786e+08 2.81786e+08 9.70964e+07 9.70964e+07 6.08216e+07 6.08216e+07 3.02824e+08 3.02824e+08 7.16333e+07 7.16333e+07 3.5499e+08 3.5499e+08 1.19004e+08 1.19004e+08 -1.19292e+07 -1.19292e+07 6.82917e+07 6.82917e+07 2.89239e+08 2.89239e+08 -5.30541e+07 -5.30541e+07 1.08559e+08 1.08559e+08 1.20758e+08 1.20758e+08 1.90862e+08 1.90862e+08 1.23588e+08 1.23588e+08 5.93323e+08 5.93323e+08 1.5366e+08 1.5366e+08 2.41068e+08 2.41068e+08 3.32954e+07 3.32954e+07 1.83073e+08 1.83073e+08 2.21439e+08 2.21439e+08 -8.47826e+07 -8.47826e+07 -2.85042e+08 -2.85042e+08 1.42719e+08 1.42719e+08 -1.11822e+08 -1.11822e+08 -1.83741e+08 -1.83741e+08 -1.04951e+09 -1.04951e+09 -1.01792e+07 -1.01792e+07 -5.22279e+08 -5.22279e+08 1.4611e+08 1.4611e+08 1.68126e+08 1.68126e+08 3.5815e+08 3.5815e+08 4.40306e+07 4.40306e+07 1.18601e+08 1.18601e+08 3.32505e+08 3.32505e+08 -1.191e+07 -1.191e+07 1.91924e+08 1.91924e+08 2.94838e+08 2.94838e+08 2.83663e+08 2.83663e+08 3.6956e+08 3.6956e+08 3.04432e+08 3.04432e+08 2.16209e+08 2.16209e+08 5.03229e+08 5.03229e+08 5.36046e+08 5.36046e+08 -1.78218e+08 -1.78218e+08 5.97002e+08 5.97002e+08 -6.80685e+06 -6.80685e+06 -2.39732e+08 -2.39732e+08 3.8739e+08 3.8739e+08 1.03241e+08 1.03241e+08 4.88183e+08 4.88183e+08 5.0204e+08 5.0204e+08 3.16374e+08 3.16374e+08 1.74374e+08 1.74374e+08 4.86461e+08 4.86461e+08 1.84274e+08 1.84274e+08 4.32357e+08 4.32357e+08 2.50469e+08 2.50469e+08 4.25449e+08 4.25449e+08 3.3279e+08 3.3279e+08 5.45907e+08 5.45907e+08 2.42309e+07 2.42309e+07 -9.71266e+06 -9.71266e+06 7.09513e+06 7.09513e+06 -8.87912e+07 -8.87912e+07 -7.79511e+07 -7.79511e+07 3.85136e+08 3.85136e+08 -1.45074e+08 -1.45074e+08 3.10659e+08 3.10659e+08 1.68385e+08 1.68385e+08 -1.34813e+08 -1.34813e+08 1.60411e+08 1.60411e+08 1.50169e+08 1.50169e+08 -3.85589e+07 -3.85589e+07 3.95068e+08 3.95068e+08 2.29636e+08 2.29636e+08 1.12104e+08 1.12104e+08 -3.33782e+09 -3.33782e+09 -3.01732e+09 -3.01732e+09 6.39787e+08 6.39787e+08 -1.51546e+09 -1.51546e+09 1.15126e+09 1.15126e+09 -2.61395e+09 -2.61395e+09 -2.10291e+09 -2.10291e+09 -6.762e+07 -6.762e+07 -2.16191e+09 -2.16191e+09 -3.07416e+09 -3.07416e+09 -2.14277e+09 -2.14277e+09 -1.08729e+09 -1.08729e+09 -9.63213e+08 -9.63213e+08 -8.20651e+08 -8.20651e+08 2.60762e+08 2.60762e+08 -4.70168e+08 -4.70168e+08 -4.24186e+08 -4.24186e+08 -3.11978e+08 -3.11978e+08 -3.59197e+08 -3.59197e+08 -7.76131e+08 -7.76131e+08 -1.7895e+08 -1.7895e+08 1.56569e+08 1.56569e+08 -7.14126e+08 -7.14126e+08 -4.57963e+08 -4.57963e+08 -4.87241e+08 -4.87241e+08 2.55542e+08 2.55542e+08 3.61715e+08 3.61715e+08 5.25588e+07 5.25588e+07 -1.59198e+09 -1.59198e+09 -1.2065e+09 -1.2065e+09 -1.1906e+09 -1.1906e+09 -3.27623e+07 -3.27623e+07 -8.0192e+08 -8.0192e+08 -5.09067e+08 -5.09067e+08 -1.42744e+09 -1.42744e+09 -1.35586e+09 -1.35586e+09 -4.67695e+09 -4.67695e+09 -3.66424e+09 -3.66424e+09 -4.3537e+09 -4.3537e+09 -3.35576e+09 -3.35576e+09 -2.84567e+09 -2.84567e+09 -1.6437e+09 -1.6437e+09 -9.08038e+08 -9.08038e+08 -1.86171e+09 -1.86171e+09 -1.02299e+09 -1.02299e+09 -2.27307e+09 -2.27307e+09 -1.58496e+09 -1.58496e+09 -1.89051e+09 -1.89051e+09 -1.87571e+09 -1.87571e+09 -2.92766e+09 -2.92766e+09 -1.69078e+09 -1.69078e+09 -2.14228e+09 -2.14228e+09 -2.96269e+09 -2.96269e+09 -1.81382e+09 -1.81382e+09 -1.93774e+09 -1.93774e+09 -4.66135e+08 -4.66135e+08 -4.53633e+08 -4.53633e+08 6.10414e+08 6.10414e+08 -4.9181e+09 -4.9181e+09 -5.08846e+09 -5.08846e+09 -5.01378e+09 -5.01378e+09 -4.41289e+09 -4.41289e+09 -2.03072e+09 -2.03072e+09 -3.98932e+09 -3.98932e+09 -2.51963e+09 -2.51963e+09 -1.83734e+09 -1.83734e+09 -3.96999e+09 -3.96999e+09 -3.90962e+08 -3.90962e+08 -2.66531e+09 -2.66531e+09 -3.08475e+09 -3.08475e+09 -2.04745e+09 -2.04745e+09 -2.73537e+09 -2.73537e+09 -2.72695e+09 -2.72695e+09 -2.74788e+09 -2.74788e+09 -3.77299e+09 -3.77299e+09 -3.86571e+09 -3.86571e+09 -3.36345e+09 -3.36345e+09 -3.44697e+09 -3.44697e+09 -4.4948e+09 -4.4948e+09 -3.02887e+09 -3.02887e+09 -3.44697e+09 -3.44697e+09 -2.83991e+09 -2.83991e+09 -3.04554e+09 -3.04554e+09 -2.02019e+09 -2.02019e+09 -6.5918e+08 -6.5918e+08 -5.68647e+08 -5.68647e+08 -2.14714e+09 -2.14714e+09 -2.03428e+09 -2.03428e+09 -8.96946e+08 -8.96946e+08 -7.5897e+08 -7.5897e+08 -1.08108e+08 -1.08108e+08 -5.30261e+08 -5.30261e+08 -6.97546e+08 -6.97546e+08 -4.80811e+08 -4.80811e+08 -7.28076e+08 -7.28076e+08 -8.53823e+08 -8.53823e+08 -1.75459e+08 -1.75459e+08 4.33167e+07 4.33167e+07 1.35028e+09 1.35028e+09 1.01742e+09 1.01742e+09 -4.13502e+08 -4.13502e+08 -7.37918e+08 -7.37918e+08 -2.48663e+09 -2.48663e+09 -2.58322e+09 -2.58322e+09 -8.4087e+08 -8.4087e+08 -2.26633e+09 -2.26633e+09 -6.43929e+08 -6.43929e+08 -1.28923e+09 -1.28923e+09 -6.77554e+08 -6.77554e+08 -1.12512e+09 -1.12512e+09 -8.99293e+07 -8.99293e+07 2.6588e+08 2.6588e+08 -1.89991e+09 -1.89991e+09 -4.86521e+08 -4.86521e+08 4.02911e+09 4.02911e+09 4.05768e+09 4.05768e+09 4.1019e+09 4.1019e+09 4.06202e+09 4.06202e+09 3.59949e+09 3.59949e+09 3.73572e+09 3.73572e+09 4.06029e+09 4.06029e+09 4.24749e+09 4.24749e+09 3.74641e+09 3.74641e+09 3.67858e+09 3.67858e+09 3.36519e+09 3.36519e+09 3.46677e+09 3.46677e+09 3.47537e+09 3.47537e+09 2.9085e+09 2.9085e+09 2.64561e+09 2.64561e+09 4.36919e+09 4.36919e+09 4.39822e+09 4.39822e+09 4.09623e+09 4.09623e+09 3.68328e+09 3.68328e+09 3.75111e+09 3.75111e+09 3.96777e+09 3.96777e+09 3.72665e+09 3.72665e+09 3.83026e+09 3.83026e+09 3.70638e+09 3.70638e+09 3.84058e+09 3.84058e+09 3.83049e+09 3.83049e+09 3.82468e+09 3.82468e+09 3.50852e+09 3.50852e+09 3.79341e+09 3.79341e+09 4.0971e+09 4.0971e+09 4.09123e+09 4.09123e+09 3.87199e+09 3.87199e+09 3.80726e+09 3.80726e+09 3.98957e+09 3.98957e+09 3.93292e+09 3.93292e+09 3.18446e+09 3.18446e+09 4.72171e+09 4.72171e+09 4.71733e+09 4.71733e+09 3.90177e+09 3.90177e+09 3.94591e+09 3.94591e+09 4.73023e+09 4.73023e+09 3.85175e+09 3.85175e+09 3.93951e+09 3.93951e+09 3.99487e+09 3.99487e+09 3.85461e+09 3.85461e+09 3.84214e+09 3.84214e+09 4.01525e+09 4.01525e+09 4.66756e+09 4.66756e+09 3.38721e+09 3.38721e+09 3.81579e+09 3.81579e+09 4.09552e+09 4.09552e+09 4.54064e+09 4.54064e+09 4.09551e+09 4.09551e+09 4.42015e+09 4.42015e+09 4.51868e+09 4.51868e+09 3.70017e+09 3.70017e+09 4.60808e+09 4.60808e+09 4.83433e+09 4.83433e+09 4.63815e+09 4.63815e+09 4.60347e+09 4.60347e+09 4.87259e+09 4.87259e+09 3.50518e+09 3.50518e+09 3.17264e+09 3.17264e+09 4.96107e+09 4.96107e+09 4.28516e+09 4.28516e+09 3.43223e+09 3.43223e+09 8.02594e+08 8.02594e+08 1.43791e+09 1.43791e+09 -8.66274e+08 -8.66274e+08 1.54945e+09 1.54945e+09 1.55878e+09 1.55878e+09 6.46256e+08 6.46256e+08 1.44162e+09 1.44162e+09 -1.38324e+08 -1.38324e+08 2.20989e+08 2.20989e+08 -7.2582e+08 -7.2582e+08 -8.1628e+07 -8.1628e+07 8.80284e+08 8.80284e+08 6.22341e+08 6.22341e+08 1.2704e+09 1.2704e+09 1.59379e+08 1.59379e+08 -5.69456e+08 -5.69456e+08 -4.125