# vtk DataFile Version 3.0
#This file was generated by the deal.II library on 2016/5/13 at 16:44:16
ASCII
DATASET UNSTRUCTURED_GRID

POINTS 18272 double
162500 -100000 0
175000 -100000 0
162500 -87500 0
175000 -87500 0
162500 -87500 0
175000 -87500 0
162500 -75000 0
175000 -75000 0
112500 -50000 0
125000 -50000 0
112500 -37500 0
125000 -37500 0
125000 -25000 0
137500 -25000 0
125000 -12500 0
137500 -12500 0
125000 -50000 0
137500 -50000 0
125000 -37500 0
137500 -37500 0
137500 -50000 0
150000 -50000 0
137500 -37500 0
150000 -37500 0
162500 -12500 0
175000 -12500 0
162500 0 0
175000 0 0
125000 -75000 0
137500 -75000 0
125000 -62500 0
137500 -62500 0
137500 -75000 0
150000 -75000 0
137500 -62500 0
150000 -62500 0
125000 -62500 0
137500 -62500 0
125000 -50000 0
137500 -50000 0
137500 -62500 0
150000 -62500 0
137500 -50000 0
150000 -50000 0
175000 -100000 0
187500 -100000 0
175000 -87500 0
187500 -87500 0
187500 -100000 0
200000 -100000 0
187500 -87500 0
200000 -87500 0
175000 -87500 0
187500 -87500 0
175000 -75000 0
187500 -75000 0
187500 -87500 0
200000 -87500 0
187500 -75000 0
200000 -75000 0
150000 -75000 0
162500 -75000 0
150000 -62500 0
162500 -62500 0
162500 -75000 0
175000 -75000 0
162500 -62500 0
175000 -62500 0
150000 -62500 0
162500 -62500 0
150000 -50000 0
162500 -50000 0
162500 -62500 0
175000 -62500 0
162500 -50000 0
175000 -50000 0
175000 -75000 0
187500 -75000 0
175000 -62500 0
187500 -62500 0
187500 -75000 0
200000 -75000 0
187500 -62500 0
200000 -62500 0
175000 -62500 0
187500 -62500 0
175000 -50000 0
187500 -50000 0
187500 -62500 0
200000 -62500 0
187500 -50000 0
200000 -50000 0
150000 -50000 0
162500 -50000 0
150000 -37500 0
162500 -37500 0
162500 -50000 0
175000 -50000 0
162500 -37500 0
175000 -37500 0
150000 -37500 0
162500 -37500 0
150000 -25000 0
162500 -25000 0
162500 -37500 0
175000 -37500 0
162500 -25000 0
175000 -25000 0
175000 -50000 0
187500 -50000 0
175000 -37500 0
187500 -37500 0
187500 -50000 0
200000 -50000 0
187500 -37500 0
200000 -37500 0
175000 -37500 0
187500 -37500 0
175000 -25000 0
187500 -25000 0
187500 -37500 0
200000 -37500 0
187500 -25000 0
200000 -25000 0
175000 -25000 0
187500 -25000 0
175000 -12500 0
187500 -12500 0
187500 -25000 0
200000 -25000 0
187500 -12500 0
200000 -12500 0
175000 -12500 0
187500 -12500 0
175000 0 0
187500 0 0
187500 -12500 0
200000 -12500 0
187500 0 0
200000 0 0
87500 -75000 0
93750 -75000 0
87500 -68750 0
93750 -68750 0
43750 -43750 0
50000 -43750 0
43750 -37500 0
50000 -37500 0
75000 -56250 0
81250 -56250 0
75000 -50000 0
81250 -50000 0
81250 -56250 0
87500 -56250 0
81250 -50000 0
87500 -50000 0
87500 -62500 0
93750 -62500 0
87500 -56250 0
93750 -56250 0
93750 -62500 0
100000 -62500 0
93750 -56250 0
100000 -56250 0
87500 -56250 0
93750 -56250 0
87500 -50000 0
93750 -50000 0
93750 -56250 0
100000 -56250 0
93750 -50000 0
100000 -50000 0
56250 -50000 0
62500 -50000 0
56250 -43750 0
62500 -43750 0
50000 -43750 0
56250 -43750 0
50000 -37500 0
56250 -37500 0
62500 -50000 0
68750 -50000 0
62500 -43750 0
68750 -43750 0
68750 -50000 0
75000 -50000 0
68750 -43750 0
75000 -43750 0
75000 -50000 0
81250 -50000 0
75000 -43750 0
81250 -43750 0
81250 -50000 0
87500 -50000 0
81250 -43750 0
87500 -43750 0
75000 -43750 0
81250 -43750 0
75000 -37500 0
81250 -37500 0
118750 -100000 0
125000 -100000 0
118750 -93750 0
125000 -93750 0
118750 -87500 0
125000 -87500 0
118750 -81250 0
125000 -81250 0
100000 -68750 0
106250 -68750 0
100000 -62500 0
106250 -62500 0
106250 -68750 0
112500 -68750 0
106250 -62500 0
112500 -62500 0
118750 -25000 0
125000 -25000 0
118750 -18750 0
125000 -18750 0
118750 -18750 0
125000 -18750 0
118750 -12500 0
125000 -12500 0
118750 -6250 0
125000 -6250 0
118750 0 0
125000 0 0
106250 -37500 0
112500 -37500 0
106250 -31250 0
112500 -31250 0
112500 -37500 0
118750 -37500 0
112500 -31250 0
118750 -31250 0
118750 -37500 0
125000 -37500 0
118750 -31250 0
125000 -31250 0
112500 -31250 0
118750 -31250 0
112500 -25000 0
118750 -25000 0
118750 -31250 0
125000 -31250 0
118750 -25000 0
125000 -25000 0
87500 -50000 0
93750 -50000 0
87500 -43750 0
93750 -43750 0
93750 -50000 0
100000 -50000 0
93750 -43750 0
100000 -43750 0
87500 -43750 0
93750 -43750 0
87500 -37500 0
93750 -37500 0
93750 -43750 0
100000 -43750 0
93750 -37500 0
100000 -37500 0
87500 -37500 0
93750 -37500 0
87500 -31250 0
93750 -31250 0
93750 -37500 0
100000 -37500 0
93750 -31250 0
100000 -31250 0
87500 -31250 0
93750 -31250 0
87500 -25000 0
93750 -25000 0
93750 -31250 0
100000 -31250 0
93750 -25000 0
100000 -25000 0
100000 -87500 0
106250 -87500 0
100000 -81250 0
106250 -81250 0
106250 -87500 0
112500 -87500 0
106250 -81250 0
112500 -81250 0
100000 -81250 0
106250 -81250 0
100000 -75000 0
106250 -75000 0
106250 -81250 0
112500 -81250 0
106250 -75000 0
112500 -75000 0
125000 -100000 0
131250 -100000 0
125000 -93750 0
131250 -93750 0
131250 -100000 0
137500 -100000 0
131250 -93750 0
137500 -93750 0
125000 -93750 0
131250 -93750 0
125000 -87500 0
131250 -87500 0
131250 -93750 0
137500 -93750 0
131250 -87500 0
137500 -87500 0
137500 -100000 0
143750 -100000 0
137500 -93750 0
143750 -93750 0
143750 -100000 0
150000 -100000 0
143750 -93750 0
150000 -93750 0
137500 -93750 0
143750 -93750 0
137500 -87500 0
143750 -87500 0
143750 -93750 0
150000 -93750 0
143750 -87500 0
150000 -87500 0
125000 -87500 0
131250 -87500 0
125000 -81250 0
131250 -81250 0
131250 -87500 0
137500 -87500 0
131250 -81250 0
137500 -81250 0
125000 -81250 0
131250 -81250 0
125000 -75000 0
131250 -75000 0
131250 -81250 0
137500 -81250 0
131250 -75000 0
137500 -75000 0
137500 -87500 0
143750 -87500 0
137500 -81250 0
143750 -81250 0
143750 -87500 0
150000 -87500 0
143750 -81250 0
150000 -81250 0
137500 -81250 0
143750 -81250 0
137500 -75000 0
143750 -75000 0
143750 -81250 0
150000 -81250 0
143750 -75000 0
150000 -75000 0
112500 -75000 0
118750 -75000 0
112500 -68750 0
118750 -68750 0
118750 -75000 0
125000 -75000 0
118750 -68750 0
125000 -68750 0
112500 -68750 0
118750 -68750 0
112500 -62500 0
118750 -62500 0
118750 -68750 0
125000 -68750 0
118750 -62500 0
125000 -62500 0
100000 -62500 0
106250 -62500 0
100000 -56250 0
106250 -56250 0
106250 -62500 0
112500 -62500 0
106250 -56250 0
112500 -56250 0
100000 -56250 0
106250 -56250 0
100000 -50000 0
106250 -50000 0
106250 -56250 0
112500 -56250 0
106250 -50000 0
112500 -50000 0
112500 -62500 0
118750 -62500 0
112500 -56250 0
118750 -56250 0
118750 -62500 0
125000 -62500 0
118750 -56250 0
125000 -56250 0
112500 -56250 0
118750 -56250 0
112500 -50000 0
118750 -50000 0
118750 -56250 0
125000 -56250 0
118750 -50000 0
125000 -50000 0
100000 -25000 0
106250 -25000 0
100000 -18750 0
106250 -18750 0
106250 -25000 0
112500 -25000 0
106250 -18750 0
112500 -18750 0
100000 -18750 0
106250 -18750 0
100000 -12500 0
106250 -12500 0
106250 -18750 0
112500 -18750 0
106250 -12500 0
112500 -12500 0
100000 -12500 0
106250 -12500 0
100000 -6250 0
106250 -6250 0
106250 -12500 0
112500 -12500 0
106250 -6250 0
112500 -6250 0
100000 -6250 0
106250 -6250 0
100000 0 0
106250 0 0
106250 -6250 0
112500 -6250 0
106250 0 0
112500 0 0
150000 -100000 0
156250 -100000 0
150000 -93750 0
156250 -93750 0
156250 -100000 0
162500 -100000 0
156250 -93750 0
162500 -93750 0
150000 -93750 0
156250 -93750 0
150000 -87500 0
156250 -87500 0
156250 -93750 0
162500 -93750 0
156250 -87500 0
162500 -87500 0
150000 -87500 0
156250 -87500 0
150000 -81250 0
156250 -81250 0
156250 -87500 0
162500 -87500 0
156250 -81250 0
162500 -81250 0
150000 -81250 0
156250 -81250 0
150000 -75000 0
156250 -75000 0
156250 -81250 0
162500 -81250 0
156250 -75000 0
162500 -75000 0
100000 -50000 0
106250 -50000 0
100000 -43750 0
106250 -43750 0
106250 -50000 0
112500 -50000 0
106250 -43750 0
112500 -43750 0
100000 -43750 0
106250 -43750 0
100000 -37500 0
106250 -37500 0
106250 -43750 0
112500 -43750 0
106250 -37500 0
112500 -37500 0
137500 -25000 0
143750 -25000 0
137500 -18750 0
143750 -18750 0
143750 -25000 0
150000 -25000 0
143750 -18750 0
150000 -18750 0
137500 -18750 0
143750 -18750 0
137500 -12500 0
143750 -12500 0
143750 -18750 0
150000 -18750 0
143750 -12500 0
150000 -12500 0
125000 -12500 0
131250 -12500 0
125000 -6250 0
131250 -6250 0
131250 -12500 0
137500 -12500 0
131250 -6250 0
137500 -6250 0
125000 -6250 0
131250 -6250 0
125000 0 0
131250 0 0
131250 -6250 0
137500 -6250 0
131250 0 0
137500 0 0
137500 -12500 0
143750 -12500 0
137500 -6250 0
143750 -6250 0
143750 -12500 0
150000 -12500 0
143750 -6250 0
150000 -6250 0
137500 -6250 0
143750 -6250 0
137500 0 0
143750 0 0
143750 -6250 0
150000 -6250 0
143750 0 0
150000 0 0
125000 -37500 0
131250 -37500 0
125000 -31250 0
131250 -31250 0
131250 -37500 0
137500 -37500 0
131250 -31250 0
137500 -31250 0
125000 -31250 0
131250 -31250 0
125000 -25000 0
131250 -25000 0
131250 -31250 0
137500 -31250 0
131250 -25000 0
137500 -25000 0
137500 -37500 0
143750 -37500 0
137500 -31250 0
143750 -31250 0
143750 -37500 0
150000 -37500 0
143750 -31250 0
150000 -31250 0
137500 -31250 0
143750 -31250 0
137500 -25000 0
143750 -25000 0
143750 -31250 0
150000 -31250 0
143750 -25000 0
150000 -25000 0
150000 -25000 0
156250 -25000 0
150000 -18750 0
156250 -18750 0
156250 -25000 0
162500 -25000 0
156250 -18750 0
162500 -18750 0
150000 -18750 0
156250 -18750 0
150000 -12500 0
156250 -12500 0
156250 -18750 0
162500 -18750 0
156250 -12500 0
162500 -12500 0
162500 -25000 0
168750 -25000 0
162500 -18750 0
168750 -18750 0
168750 -25000 0
175000 -25000 0
168750 -18750 0
175000 -18750 0
162500 -18750 0
168750 -18750 0
162500 -12500 0
168750 -12500 0
168750 -18750 0
175000 -18750 0
168750 -12500 0
175000 -12500 0
150000 -12500 0
156250 -12500 0
150000 -6250 0
156250 -6250 0
156250 -12500 0
162500 -12500 0
156250 -6250 0
162500 -6250 0
150000 -6250 0
156250 -6250 0
150000 0 0
156250 0 0
156250 -6250 0
162500 -6250 0
156250 0 0
162500 0 0
0 -100000 0
3125 -100000 0
0 -96875 0
3125 -96875 0
3125 -100000 0
6250 -100000 0
3125 -96875 0
6250 -96875 0
0 -96875 0
3125 -96875 0
0 -93750 0
3125 -93750 0
3125 -96875 0
6250 -96875 0
3125 -93750 0
[...]
POINT_DATA 18272
SCALARS history_field_xz double 1
LOOKUP_TABLE default
-1209.61 -1209.61 -1210.26 -1210.26 -1210.26 -1210.26 -1212.42 -1212.42 -1218.28 -1218.28 -1237.4 -1237.4 -1242.56 -1242.56 -1250.03 -1250.03 -1218.52 -1218.52 -1231.29 -1231.29 -1218.53 -1218.53 -1226.96 -1226.96 -1226.95 -1226.95 -1227.84 -1227.84 -1194.84 -1194.84 -1205.54 -1205.54 -1203.08 -1203.08 -1210.12 -1210.12 -1205.54 -1205.54 -1218.52 -1218.52 -1210.12 -1210.12 -1218.53 -1218.53 -1213.8 -1213.8 -1214.18 -1214.18 -1217.16 -1217.16 -1217.28 -1217.28 -1214.18 -1214.18 -1215.28 -1215.28 -1217.28 -1217.28 -1217.62 -1217.62 -1208.78 -1208.78 -1213.25 -1213.25 -1212.42 -1212.42 -1215.31 -1215.31 -1213.25 -1213.25 -1218.64 -1218.64 -1215.31 -1215.31 -1218.74 -1218.74 -1215.28 -1215.28 -1216.81 -1216.81 -1217.62 -1217.62 -1218.15 -1218.15 -1216.81 -1216.81 -1218.69 -1218.69 -1218.15 -1218.15 -1218.72 -1218.72 -1218.64 -1218.64 -1224.21 -1224.21 -1218.74 -1218.74 -1222.1 -1222.1 -1224.21 -1224.21 -1229.04 -1229.04 -1222.1 -1222.1 -1224.8 -1224.8 -1218.69 -1218.69 -1220.56 -1220.56 -1218.72 -1218.72 -1219.28 -1219.28 -1220.56 -1220.56 -1222.21 -1222.21 -1219.28 -1219.28 -1219.81 -1219.81 -1222.21 -1222.21 -1223.3 -1223.3 -1219.81 -1219.81 -1220.15 -1220.15 -1223.3 -1223.3 -1223.67 -1223.67 -1220.15 -1220.15 -1220.24 -1220.24 -1133.27 -1133.27 -1150.15 -1150.15 -1252.75 -1252.75 -1356.97 -1356.97 -1175.46 -1175.46 -1210.16 -1210.16 -1185.22 -1185.22 -1212.9 -1212.9 -1169.4 -1169.4 -1191.66 -1191.66 -1179.2 -1179.2 -1196.94 -1196.94 -1191.66 -1191.66 -1214.86 -1214.86 -1196.94 -1196.94 -1216.16 -1216.16 -1190.24 -1190.24 -1255.8 -1255.8 -1256.57 -1256.57 -1338.31 -1338.31 -1199.8 -1199.8 -1252.8 -1252.8 -1206.37 -1206.37 -1249.05 -1249.05 -1210.16 -1210.16 -1245.68 -1245.68 -1212.9 -1212.9 -1241.92 -1241.92 -1245.68 -1245.68 -1281.1 -1281.1 -1174.21 -1174.21 -1175.39 -1175.39 -1178.07 -1178.07 -1182.12 -1182.12 -1172.59 -1172.59 -1186.37 -1186.37 -1181.38 -1181.38 -1192.23 -1192.23 -1249.66 -1249.66 -1259.07 -1259.07 -1259.07 -1259.07 -1259.7 -1259.7 -1262.36 -1262.36 -1264.07 -1264.07 -1243.34 -1243.34 -1255.04 -1255.04 -1237.4 -1237.4 -1248.81 -1248.81 -1237.4 -1237.4 -1242.98 -1242.98 -1248.81 -1248.81 -1257.78 -1257.78 -1242.98 -1242.98 -1249.66 -1249.66 -1214.86 -1214.86 -1238.42 -1238.42 -1216.16 -1216.16 -1235.68 -1235.68 -1238.42 -1238.42 -1262.19 -1262.19 -1235.68 -1235.68 -1254.9 -1254.9 -1262.19 -1262.19 -1284.44 -1284.44 -1254.9 -1254.9 -1272.38 -1272.38 -1284.44 -1284.44 -1304.37 -1304.37 -1272.38 -1272.38 -1288.06 -1288.06 -1144.58 -1144.58 -1151.44 -1151.44 -1158.17 -1158.17 -1163.87 -1163.87 -1151.44 -1151.44 -1160.98 -1160.98 -1163.87 -1163.87 -1171.68 -1171.68 -1182.29 -1182.29 -1182.95 -1182.95 -1188.89 -1188.89 -1189.4 -1189.4 -1182.95 -1182.95 -1184.99 -1184.99 -1189.4 -1189.4 -1191.09 -1191.09 -1194.28 -1194.28 -1194.82 -1194.82 -1198.88 -1198.88 -1199.15 -1199.15 -1194.82 -1194.82 -1196.11 -1196.11 -1199.15 -1199.15 -1200.31 -1200.31 -1184.99 -1184.99 -1188.33 -1188.33 -1191.09 -1191.09 -1193.93 -1193.93 -1188.33 -1188.33 -1194.84 -1194.84 -1193.93 -1193.93 -1194.84 -1194.84 -1196.11 -1196.11 -1198.07 -1198.07 -1200.31 -1200.31 -1202.26 -1202.26 -1198.07 -1198.07 -1203.08 -1203.08 -1202.26 -1202.26 -1203.08 -1203.08 -1179.43 -1179.43 -1187.76 -1187.76 -1187.72 -1187.72 -1191.9 -1191.9 -1187.76 -1187.76 -1197.03 -1197.03 -1191.9 -1191.9 -1201.93 -1201.93 -1186.37 -1186.37 -1201.2 -1201.2 -1192.23 -1192.23 -1204.54 -1204.54 -1201.2 -1201.2 -1216.94 -1216.94 -1204.54 -1204.54 -1217.06 -1217.06 -1197.03 -1197.03 -1207.32 -1207.32 -1201.93 -1201.93 -1209 -1209 -1207.32 -1207.32 -1218.28 -1218.28 -1209 -1209 -1218.28 -1218.28 -1276.49 -1276.49 -1287.53 -1287.53 -1265.68 -1265.68 -1274.7 -1274.7 -1287.53 -1287.53 -1295.41 -1295.41 -1274.7 -1274.7 -1281.38 -1281.38 -1295.41 -1295.41 -1300.37 -1300.37 -1281.38 -1281.38 -1285.34 -1285.34 -1300.37 -1300.37 -1301.95 -1301.95 -1285.34 -1285.34 -1286.85 -1286.85 -1202.6 -1202.6 -1203.03 -1203.03 -1206.5 -1206.5 -1205.36 -1205.36 -1203.03 -1203.03 -1203.8 -1203.8 -1205.36 -1205.36 -1207.48 -1207.48 -1203.8 -1203.8 -1205.21 -1205.21 -1207.48 -1207.48 -1207.25 -1207.25 -1205.21 -1205.21 -1208.78 -1208.78 -1207.25 -1207.25 -1208.78 -1208.78 -1216.94 -1216.94 -1233.04 -1233.04 -1217.06 -1217.06 -1231.33 -1231.33 -1233.04 -1233.04 -1248.69 -1248.69 -1231.33 -1231.33 -1243.34 -1243.34 -1236.55 -1236.55 -1237.28 -1237.28 -1232.4 -1232.4 -1234.91 -1234.91 -1237.28 -1237.28 -1241.69 -1241.69 -1234.91 -1234.91 -1236.98 -1236.98 -1250.03 -1250.03 -1255.15 -1255.15 -1250.03 -1250.03 -1248.65 -1248.65 -1255.15 -1255.15 -1255.72 -1255.72 -1248.65 -1248.65 -1249.25 -1249.25 -1241.69 -1241.69 -1243.42 -1243.42 -1236.98 -1236.98 -1238.51 -1238.51 -1243.42 -1243.42 -1243.65 -1243.65 -1238.51 -1238.51 -1238.97 -1238.97 -1231.29 -1231.29 -1239.11 -1239.11 -1231.29 -1231.29 -1235.47 -1235.47 -1239.11 -1239.11 -1242.56 -1242.56 -1235.47 -1235.47 -1242.56 -1242.56 -1226.96 -1226.96 -1232.89 -1232.89 -1226.96 -1226.96 -1230.68 -1230.68 -1232.89 -1232.89 -1236.55 -1236.55 -1230.68 -1230.68 -1232.4 -1232.4 -1229.04 -1229.04 -1231.92 -1231.92 -1229.04 -1229.04 -1229.08 -1229.08 -1231.92 -1231.92 -1233.63 -1233.63 -1229.08 -1229.08 -1230.38 -1230.38 -1224.8 -1224.8 -1227.3 -1227.3 -1224.8 -1224.8 -1226.1 -1226.1 -1227.3 -1227.3 -1226.95 -1226.95 -1226.1 -1226.1 -1226.95 -1226.95 -1233.63 -1233.63 -1234.6 -1234.6 -1230.38 -1230.38 -1232.3 -1232.3 -1234.6 -1234.6 -1235.13 -1235.13 -1232.3 -1232.3 -1230.88 -1230.88 -32.4101 -32.4101 -32.5127 -32.5127 -97.19 -97.19 -97.4864 -97.4864 -32.5127 -32.5127 -32.8261 -32.8261 -97.4864 -97.4864 -98.4435 -98.4435 -161.194 -161.194 -161.684 -161.684 -224.319 -224.319 -224.987 -224.987 -161.684 -161.684 -163.235 -163.235 -224.987 -224.987 -227.059 -227.059 -32.8261 -32.8261 -33.3933 -33.3933 -98.4435 -98.4435 -99.9611 -99.9611 -33.3933 -33.3933 -34.0328 -34.0328 -99.9611 -99.9611 -102.31 -102.31 -163.235 -163.235 -165.827 -165.827 -227.059 -227.059 -230.545 -230.545 -165.827 -165.827 -169.576 -169.576 -230.545 -230.545 -235.756 -235.756 -286.007 -286.007 -286.921 -286.921 -346.225 -346.225 -347.078 -347.078 -286.921 -286.921 -289.316 -289.316 -347.078 -347.078 -349.94 -349.94 -404.463 -404.463 -405.508 -405.508 -460.629 -460.629 -461.752 -461.752 -405.508 -405.508 -408.762 -408.762 -461.752 -461.752 -464.969 -464.969 -289.316 -289.316 -293.658 -293.658 -349.94 -349.94 -354.83 -354.83 -293.658 -293.658 -299.635 -299.635 -354.83 -354.83 -361.844 -361.844 -408.762 -408.762 -414.1 -414.1 -464.969 -464.969 -470.9 -470.9 -414.1 -414.1 -421.929 -421.929 -470.9 -470.9 -479.413 -479.413 -34.0328 -34.0328 -34.6911 -34.6911 -102.31 -102.31 -103.998 -103.998 -169.576 -169.576 -176.888 -176.888 -235.756 -235.756 -241.913 -241.913 -241.913 -241.913 -249.916 -249.916 -299.635 -299.635 -307.564 -307.564 -361.844 -361.844 -371.058 -371.058 -307.564 -307.564 -317.596 -317.596 -371.058 -371.058 -382.817 -382.817 -421.929 -421.929 -432.199 -432.199 -479.413 -479.413 -490.543 -490.543 -432.199 -432.199 -445.25 -445.25 -490.543 -490.543 -504.617 -504.617 -317.596 -317.596 -330.09 -330.09 -382.817 -382.817 -397.211 -397.211 -397.211 -397.211 -414.947 -414.947 -445.25 -445.25 -461.395 -461.395 -504.617 -504.617 -521.897 -521.897 -461.395 -461.395 -480.919 -480.919 -521.897 -521.897 -542.866 -542.866 -516.258 -516.258 -514.938 -514.938 -514.938 -514.938 -518.627 -518.627 -564.363 -564.363 -570.283 -570.283 -616.401 -616.401 -619.621 -619.621 -518.627 -518.627 -525.231 -525.231 -570.283 -570.283 -576.989 -576.989 -525.231 -525.231 -534.17 -534.17 -576.989 -576.989 -586.413 -586.413 -619.621 -619.621 -626.057 -626.057 -626.057 -626.057 -635.501 -635.501 -1119.24 -1119.24 -1162.18 -1162.18 -983.273 -983.273 -984.228 -984.228 -1004.33 -1004.33 -1004.92 -1004.92 -1023.51 -1023.51 -1024.95 -1024.95 -534.17 -534.17 -546.122 -546.122 -586.413 -586.413 -598.521 -598.521 -546.122 -546.122 -560.979 -560.979 -598.521 -598.521 -613.783 -613.783 -635.501 -635.501 -647.977 -647.977 -647.977 -647.977 -663.555 -663.555 -560.979 -560.979 -579.09 -579.09 -613.783 -613.783 -632.438 -632.438 -579.09 -579.09 -600.803 -600.803 -632.438 -632.438 -654.767 -654.767 -663.555 -663.555 -682.306 -682.306 -682.306 -682.306 -704.679 -704.679 -1034.42 -1034.42 -1045.12 -1045.12 -480.919 -480.919 -504.459 -504.459 -542.866 -542.866 -568.043 -568.043 -568.043 -568.043 -595.329 -595.329 -595.329 -595.329 -631.224 -631.224 -631.224 -631.224 -675.364 -675.364 -600.803 -600.803 -626.422 -626.422 -654.767 -654.767 -680.993 -680.993 -626.422 -626.422 -656.761 -656.761 -680.993 -680.993 -711.85 -711.85 -704.679 -704.679 -731.109 -731.109 -731.109 -731.109 -761.716 -761.716 -656.761 -656.761 -692.762 -692.762 -711.85 -711.85 -747.493 -747.493 -692.762 -692.762 -735.162 -735.162 -747.493 -747.493 -788.482 -788.482 -761.716 -761.716 -797.306 -797.306 -797.306 -797.306 -836.141 -836.141 -702.989 -702.989 -704.713 -704.713 -744.208 -744.208 -745.593 -745.593 -704.713 -704.713 -709.058 -709.058 -745.593 -745.593 -749.626 -749.626 -1061.07 -1061.07 -1084.23 -1084.23 -1080.02 -1080.02 -1111.76 -1111.76 -735.162 -735.162 -781.603 -781.603 -788.482 -788.482 -837.634 -837.634 -781.603 -781.603 -838.878 -838.878 -837.634 -837.634 -891.452 -891.452 -838.878 -838.878 -902.588 -902.588 -891.452 -891.452 -952.817 -952.817 -902.588 -902.588 -979.225 -979.226 -1068.04 -1068.04 -1095.19 -1095.19 -1084.23 -1084.23 -1109.04 -1109.04 -1095.19 -1095.19 -1124.56 -1124.56 -1109.04 -1109.04 -1135.67 -1135.67 -1096.31 -1096.31 -1133.09 -1133.09 -1111.76 -1111.76 -1145.56 -1145.56 -1133.09 -1133.09 -1172.21 -1172.21 -1145.56 -1145.56 -1180.82 -1180.82 -1267.78 -1267.78 -1387.19 -1387.19 -1288.61 -1288.61 -1390.69 -1390.69 -1174.07 -1174.07 -1239.39 -1239.39 -1189.46 -1189.46 -1246.12 -1246.12 -1377.89 -1377.89 -1449.99 -1449.99 -1370.42 -1370.42 -1431.62 -1431.62 -1356.97 -1356.97 -1416.45 -1416.45 -1356.97 -1356.97 -1400.99 -1400.99 -1338.31 -1338.31 -1387.68 -1387.68 -1338.31 -1338.31 -1372.97 -1372.97 -1325.92 -1325.92 -1361.57 -1361.57 -1317.84 -1317.84 -1349.17 -1349.17 -1361.57 -1361.57 -1395.16 -1395.16 -1349.17 -1349.17 -1379.34 -1379.34 -1379.34 -1379.34 -1408.25 -1408.25 -1387.96 -1387.96 -1391.85 -1391.85 -925.201 -925.201 -1014.92 -1014.92 -1014.92 -1014.92 -1120.11 -1120.11 -1376.09 -1376.09 -1522.6 -1522.6 -1351.42 -1351.42 -1356.62 -1356.62 -1370.53 -1370.53 -1375.62 -1375.62 -1356.62 -1356.62 -1360.38 -1360.38 -1387.19 -1387.19 -1513 -1513 -1390.69 -1390.69 -1497.98 -1497.98 -1414.89 -1414.89 -1415.82 -1415.82 -1394.47 -1394.47 -1396.23 -1396.23 -1642.03 -1642.03 -1769.97 -1769.97 -1669.52 -1669.52 -1755.01 -1755.01 -1625.39 -1625.39 -1701.93 -1701.93 -1375.62 -1375.62 -1378.21 -1378.21 -1360.38 -1360.38 -1362.69 -1362.69 -1378.21 -1378.21 -1378.88 -1378.88 -1362.69 -1362.69 -1363.37 -1363.37 -1701.93 -1701.93 -1770.94 -1770.94 -1654.74 -1654.74 -1714.7 -1714.7 -1714.7 -1714.7 -1771.09 -1771.09 -1665.43 -1665.43 -1712.8 -1712.8 -1771.09 -1771.09 -1813.56 -1813.56 -1712.8 -1712.8 -1753.43 -1753.43 -1753.43 -1753.43 -1789.75 -1789.75 -1663.27 -1663.27 -1699.34 -1699.34 -1699.34 -1699.34 -1729.44 -1729.44 -1651.54 -1651.54 -1676.22 -1676.22 -1789.75 -1789.75 -1812.57 -1812.57 -1729.44 -1729.44 -1752.97 -1752.97 -1676.22 -1676.22 -1699.52 -1699.52 -1752.97 -1752.97 -1772.33 -1772.33 -1699.52 -1699.52 -1714.93 -1714.93 -1772.33 -1772.33 -1781.26 -1781.26 -1714.93 -1714.93 -1724.34 -1724.34 -1781.26 -1781.26 -1784.5 -1784.5 -1724.34 -1724.34 -1724.98 -1724.98 -782.52 -782.52 -783.803 -783.803 -818.176 -818.176 -819.51 -819.51 -783.803 -783.803 -787.723 -787.723 -819.51 -819.51 -823.108 -823.108 -709.058 -709.058 -715.708 -715.708 -749.626 -749.626 -756.271 -756.271 -715.708 -715.708 -725.144 -725.144 -756.271 -756.271 -765.51 -765.51 -787.723 -787.723 -794.072 -794.072 -823.108 -823.108 -829.512 -829.512 -794.072 -794.072 -803.239 -803.239 -829.512 -829.512 -838.145 -838.145 -725.144 -725.144 -737.428 -737.428 -765.51 -765.51 -777.678 -777.678 -737.428 -737.428 -752.776 -752.776 -777.678 -777.678 -792.718 -792.718 -803.239 -803.239 -815.034 -815.034 -838.145 -838.145 -849.54 -849.54 -815.034 -815.034 -829.52 -829.52 -849.54 -849.54 -863.553 -863.553 -1651.5 -1651.5 -1663.56 -1663.56 -752.776 -752.776 -771.333 -771.333 -792.718 -792.718 -810.81 -810.81 -771.333 -771.333 -793.168 -793.168 -810.81 -810.81 -832.021 -832.021 -1663.56 -1663.56 -1673.82 -1673.82 -829.52 -829.52 -846.935 -846.935 -863.553 -863.553 -880.254 -880.254 -846.935 -846.935 -867.428 -867.428 -880.254 -880.254 -899.766 -899.766 -793.168 -793.168 -818.544 -818.544 -832.021 -832.021 -856.551 -856.551 -818.544 -818.544 -847.849 -847.849 -856.551 -856.551 -884.587 -884.587 -867.428 -867.428 -890.94 -890.94 -899.766 -899.766 -922.307 -922.307 -890.94 -890.94 -917.695 -917.695 -922.307 -922.307 -947.434 -947.434 -847.849 -847.849 -881.09 -881.09 -884.587 -884.587 -916.321 -916.321 -881.09 -881.09 -918.434 -918.434 -916.321 -916.321 -951.715 -951.715 -917.695 -917.695 -947.774 -947.774 -947.434 -947.434 -975.638 -975.638 -947.774 -947.774 -981.353 -981.353 -975.638 -975.638 -1006.98 -1006.98 -918.434 -918.434 -960.104 -960.104 -951.715 -951.715 -990.971 -990.971 -960.104 -960.104 -1006.73 -1006.73 -990.971 -990.971 -1034.42 -1034.42 -981.353 -981.353 -1018.22 -1018.22 -1006.98 -1006.98 -1042.23 -1042.23 -1018.22 -1018.22 -1057.61 -1057.61 -1042.23 -1042.23 -1079.65 -1079.65 -1006.73 -1006.73 -1057.59 -1057.59 -1034.42 -1034.42 -1082.78 -1082.78 -1057.59 -1057.59 -1113.72 -1113.72 -1082.78 -1082.78 -1134.04 -1134.04 -851.39 -851.39 -852.476 -852.476 -882.215 -882.215 -883.319 -883.319 -852.476 -852.476 -856.131 -856.131 -883.319 -883.319 -886.776 -886.776 -910.871 -910.871 -911.877 -911.877 -937.045 -937.045 -938.593 -938.593 -911.877 -911.877 -914.999 -914.999 -938.593 -938.593 -940.933 -940.933 -856.131 -856.131 -862.007 -862.007 -886.776 -886.776 -892.432 -892.432 -862.007 -862.007 -870.548 -870.548 -892.432 -892.432 -900.497 -900.497 -914.999 -914.999 -920.409 -920.409 -940.933 -940.933 -946.048 -946.048 -920.409 -920.409 -928.073 -928.073 -946.048 -946.048 -953.251 -953.251 -964.428 -964.428 -969.982 -969.982 -988.185 -988.185 -992.205 -992.205 -969.982 -969.982 -975.853 -975.853 -992.205 -992.205 -998.795 -998.795 -870.548 -870.548 -881.432 -881.432 -900.497 -900.497 -910.755 -910.755 -881.432 -881.432 -894.743 -894.743 -910.755 -910.755 -923.522 -923.522 -928.073 -928.073 -937.999 -937.999 -953.251 -953.251 -963.23 -963.23 -937.999 -937.999 -950.054 -950.054 -963.23 -963.23 -974.083 -974.083 -894.743 -894.743 -910.683 -910.683 -923.522 -923.522 -938.45 -938.45 -910.683 -910.683 -929.232 -929.232 -938.45 -938.45 -955.917 -955.917 -950.054 -950.054 -964.078 -964.078 -974.083 -974.083 -987.836 -987.836 -964.078 -964.078 -979.333 -979.333 -987.836 -987.836 -1003.6 -1003.6 -1144.87 -1144.87 -1155.34 -1155.34 -1153.13 -1153.13 -1159.54 -1159.54 -1155.34 -1155.34 -1159.31 -1159.31 -1159.54 -1159.54 -1166.07 -1166.07 -1150.15 -1150.15 -1156.77 -1156.77 -1150.15 -1150.15 -1162.77 -1162.77 -1156.77 -1156.77 -1169.4 -1169.4 -1162.77 -1162.77 -1169.4 -1169.4 -1159.31 -1159.31 -1167.06 -1167.06 -1166.07 -1166.07 -1170.89 -1170.89 -1167.06 -1167.06 -1179.2 -1179.2 -1170.89 -1170.89 -1179.2 -1179.2 -1041.01 -1041.01 -1041.64 -1041.64 -1056.65 -1056.65 -1057.19 -1057.19 -1041.64 -1041.64 -1043.13 -1043.13 -1057.19 -1057.19 -1059.18 -1059.18 -1071.15 -1071.15 -1071.68 -1071.68 -1084.42 -1084.42 -1085.03 -1085.03 -1071.68 -1071.68 -1073.55 -1073.55 -1085.03 -1085.03 -1086.63 -1086.63 -1043.13 -1043.13 -1047.08 -1047.08 -1059.18 -1059.18 -1062.41 -1062.41 -1047.08 -1047.08 -1052.08 -1052.08 -1062.41 -1062.41 -1067.22 -1067.22 -1073.55 -1073.55 -1076.61 -1076.61 -1086.63 -1086.63 -1089.41 -1089.41 -1076.61 -1076.61 -1080.88 -1080.88 -1089.41 -1089.41 -1093.52 -1093.52 -1096.5 -1096.5 -1097.09 -1097.09 -1107.65 -1107.65 -1108.17 -1108.17 -1097.09 -1097.09 -1098.62 -1098.62 -1108.17 -1108.17 -1109.57 -1109.57 -1117.79 -1117.79 -1118.27 -1118.27 -1127.07 -1127.07 -1127.49 -1127.49 -1118.27 -1118.27 -1119.6 -1119.6 -1127.49 -1127.49 -1128.86 -1128.86 -1098.62 -1098.62 -1101.18 -1101.18 -1109.57 -1109.57 -1111.98 -1111.98 -1101.18 -1101.18 -1104.64 -1104.64 -1111.98 -1111.98 -1115.21 -1115.21 -1119.6 -1119.6 -1121.8 -1121.8 -1128.86 -1128.86 -1131.22 -1131.22 -1121.8 -1121.8 -1124.52 -1124.52 -1131.22 -1131.22 -1133.98 -1133.98 -1052.08 -1052.08 -1058.57 -1058.57 -1067.22 -1067.22 -1073.06 -1073.06 -1058.57 -1058.57 -1066.42 -1066.42 -1073.06 -1073.06 -1080.38 -1080.38 -1080.88 -1080.88 -1086.45 -1086.45 -1093.52 -1093.52 -1098.61 -1098.61 -1086.45 -1086.45 -1093.2 -1093.2 -1098.61 -1098.61 -1104.76 -1104.76 -1066.42 -1066.42 -1075.44 -1075.44 -1080.38 -1080.38 -1088.9 -1088.9 -1075.44 -1075.44 -1086.4 -1086.4 -1088.9 -1088.9 -1098.58 -1098.58 -1093.2 -1093.2 -1101.07 -1101.07 -1104.76 -1104.76 -1112.42 -1112.42 -1101.07 -1101.07 -1109.49 -1109.49 -1112.42 -1112.42 -1120.68 -1120.68 -929.232 -929.232 -950.406 -950.406 -955.917 -955.917 -976.547 -976.547 -950.406 -950.406 -974.508 -974.508 -976.547 -976.547 -998.587 -998.587 -974.508 -974.508 -1000.94 -1000.94 -998.587 -998.587 -1023.45 -1023.45 -1000.94 -1000.94 -1029.28 -1029.28 -1023.45 -1023.45 -1050.93 -1050.93 -1104.64 -1104.64 -1109.48 -1109.48 -1115.21 -1115.21 -1119.29 -1119.29 -1109.48 -1109.48 -1115.18 -1115.18 -1119.29 -1119.29 -1124.45 -1124.45 -1124.52 -1124.52 -1128.42 -1128.42 -1133.98 -1133.98 -1134.16 -1134.16 -1128.42 -1128.42 -1132.78 -1132.78 -1134.16 -1134.16 -1142.88 -1142.88 -1115.18 -1115.18 -1121.78 -1121.78 -1124.45 -1124.45 -1130.5 -1130.5 -1121.78 -1121.78 -1133.27 -1133.27 -1130.5 -1130.5 -1133.27 -1133.27 -1132.78 -1132.78 -1138.2 -1138.2 -1142.88 -1142.88 -1144.01 -1144.01 -1138.2 -1138.2 -1144.87 -1144.87 -1144.01 -1144.01 -1153.13 -1153.13 -1124.56 -1124.56 -1155.44 -1155.44 -1135.67 -1135.67 -1164 -1164 -1155.44 -1155.44 -1190.24 -1190.24 -1164 -1164 -1190.24 -1190.24 -1022.08 -1022.08 -1038.26 -1038.26 -1041.32 -1041.32 -1055.92 -1055.92 -1038.26 -1038.26 -1056.41 -1056.41 -1055.92 -1055.92 -1072.54 -1072.54 -1057.6 -1057.6 -1071.49 -1071.49 -1073.16 -1073.16 -1085.58 -1085.58 -1071.49 -1071.49 -1086.86 -1086.86 -1085.58 -1085.58 -1099.62 -1099.62 -1056.41 -1056.41 -1076.83 -1076.83 -1072.54 -1072.54 -1090.9 -1090.9 -1076.83 -1076.83 -1098.16 -1098.16 -1090.9 -1090.9 -1110.69 -1110.69 -1086.86 -1086.86 -1103.54 -1103.54 -1099.62 -1099.62 -1115.02 -1115.02 -1103.54 -1103.54 -1121.68 -1121.68 -1115.02 -1115.02 -1131.67 -1131.67 -1098.16 -1098.16 -1121.14 -1121.14 -1110.69 -1110.69 -1131.61 -1131.61 -1121.14 -1121.14 -1145.47 -1145.47 -1131.61 -1131.61 -1153.85 -1153.85 -1121.68 -1121.68 -1141.01 -1141.01 -1131.67 -1131.67 -1149.55 -1149.55 -1141.01 -1141.01 -1161.14 -1161.14 -1149.55 -1149.55 -1168.05 -1168.05 -1145.47 -1145.47 -1170.74 -1170.74 -1153.85 -1153.85 -1177.47 -1177.47 -1170.74 -1170.74 -1199.8 -1199.8 -1177.47 -1177.47 -1199.8 -1199.8 -1161.14 -1161.14 -1182.34 -1182.34 -1168.05 -1168.05 -1185.49 -1185.49 -1182.34 -1182.34 -1206.37 -1206.37 -1185.49 -1185.49 -1206.37 -1206.37 -1059.93 -1059.93 -1133.06 -1133.06 -1091.96 -1091.96 -1156.95 -1156.95 -1133.06 -1133.06 -1212.57 -1212.57 -1156.95 -1156.95 -1228.45 -1228.45 -1212.57 -1212.57 -1298.92 -1298.92 -1228.45 -1228.45 -1304.84 -1304.84 -1298.92 -1298.92 -1389.29 -1389.29 -1304.84 -1304.84 -1384.64 -1384.64 -1149.04 -1149.04 -1198.83 -1198.83 -1162.18 -1162.18 -1207.14 -1207.14 -1198.83 -1198.83 -1252.75 -1252.75 -1207.14 -1207.14 -1252.75 -1252.75 -1239.39 -1239.39 -1307.52 -1307.52 -1246.12 -1246.12 -1308.25 -1308.25 -1307.52 -1307.52 -1377.89 -1377.89 -1308.25 -1308.25 -1370.42 -1370.42 -1389.29 -1389.29 -1482.49 -1482.49 -1384.64 -1384.64 -1466.17 -1466.17 -1482.49 -1482.49 -1577.12 -1577.12 -1466.17 -1466.17 -1546.72 -1546.72 -1471.83 -1471.83 -1525.3 -1525.3 -1449.97 -1449.97 -1496.81 -1496.81 -1525.3 -1525.3 -1576.11 -1576.11 -1496.81 -1496.81 -1539.57 -1539.57 -1430.